
Predictions were generated on 18-Feb-2025 at 21:38:06 using FAST.Farm, compiled as a 64-bit application using single precision
 linked with  NWTC Subroutine Library

Description from the FAST.Farm input file: FAST.Farm              input       - file, using two turbines separated by 3D downstream and an offset of 30m, turbulent inflow, yaw maneuver for WT1

Time                	RtVAmbT1            	YawErrT1            	RtSkewT1            	AziSkewT1           	RtSkewFiltT1        	AziSkewFiltT1       	RtGamCurlT1         	RtVAmbFiltT1        	RtCtAvgT1           	WkAxsXT1D1          	WkAxsYT1D1          	WkAxsZT1D1          	WkPosXT1D1          	WkPosYT1D1          	WkPosZT1D1          
(s)                 	(m/s)        	(deg)        	(deg)        	(deg)        	(deg)        	(deg)        	INVALID      	(m/s)        	(-)          	(-)          	(-)          	(-)          	(m)          	(m)          	(m)          
    0.0000	 6.723E+00	-3.001E+01	 3.079E+01	-1.231E+01	 0.000E+00	 0.000E+00	 0.000E+00	 0.000E+00	 8.302E-01	 0.000E+00	 0.000E+00	 0.000E+00	 0.000E+00	 0.000E+00	 0.000E+00
    2.7500	 6.723E+00	-3.218E+01	 3.258E+01	-8.557E+00	 3.079E+01	-1.231E+01	 0.000E+00	 6.723E+00	 0.000E+00	 0.000E+00	 0.000E+00	 0.000E+00	 0.000E+00	 0.000E+00	 0.000E+00
    5.5000	 6.712E+00	-3.259E+01	 3.316E+01	-1.006E+01	 3.131E+01	-1.121E+01	 0.000E+00	 6.723E+00	 0.000E+00	 0.000E+00	 0.000E+00	 0.000E+00	 0.000E+00	 0.000E+00	 0.000E+00
    8.2500	 6.719E+00	-3.307E+01	 3.371E+01	-1.051E+01	 3.185E+01	-1.087E+01	 0.000E+00	 6.720E+00	 0.000E+00	 0.000E+00	 0.000E+00	 0.000E+00	 0.000E+00	 0.000E+00	 0.000E+00
   11.0000	 6.733E+00	-3.104E+01	 3.157E+01	-9.935E+00	 3.239E+01	-1.077E+01	 0.000E+00	 6.720E+00	 0.000E+00	 8.594E-01	 4.981E-01	-1.157E-01	 8.106E+01	-9.258E+00	 9.142E+01
   13.7500	 6.713E+00	-3.086E+01	 3.157E+01	-1.151E+01	 3.215E+01	-1.052E+01	 0.000E+00	 6.723E+00	 0.000E+00	 8.594E-01	 4.981E-01	-1.157E-01	 8.673E+01	-1.854E+01	 9.357E+01
   16.5000	 6.742E+00	-2.878E+01	 2.966E+01	-1.336E+01	 3.198E+01	-1.081E+01	 0.000E+00	 6.720E+00	 0.000E+00	 8.594E-01	 4.981E-01	-1.157E-01	 8.874E+01	-2.183E+01	 9.434E+01
   19.2500	 6.720E+00	-2.845E+01	 2.930E+01	-1.325E+01	 3.130E+01	-1.156E+01	 0.000E+00	 6.727E+00	 0.000E+00	 8.595E-01	 4.980E-01	-1.147E-01	 8.906E+01	-2.250E+01	 9.445E+01
   22.0000	 6.747E+00	-2.994E+01	 3.093E+01	-1.381E+01	 3.072E+01	-1.205E+01	 0.000E+00	 6.725E+00	 0.000E+00	 8.598E-01	 4.978E-01	-1.137E-01	 8.943E+01	-2.310E+01	 9.458E+01
   24.7500	 6.715E+00	-2.978E+01	 3.052E+01	-1.201E+01	 3.078E+01	-1.256E+01	 0.000E+00	 6.731E+00	 0.000E+00	 8.601E-01	 4.973E-01	-1.138E-01	 8.970E+01	-2.311E+01	 9.470E+01
   27.5000	 6.772E+00	-3.018E+01	 3.086E+01	-1.144E+01	 3.070E+01	-1.240E+01	 0.000E+00	 6.727E+00	 0.000E+00	 8.606E-01	 4.964E-01	-1.141E-01	 8.983E+01	-2.275E+01	 9.473E+01
   30.2500	 6.740E+00	-3.134E+01	 3.207E+01	-1.160E+01	 3.075E+01	-1.212E+01	 0.000E+00	 6.740E+00	 0.000E+00	 8.611E-01	 4.953E-01	-1.146E-01	 8.997E+01	-2.235E+01	 9.486E+01
   33.0000	 6.787E+00	-3.139E+01	 3.236E+01	-1.336E+01	 3.113E+01	-1.197E+01	 0.000E+00	 6.740E+00	 0.000E+00	 8.616E-01	 4.939E-01	-1.175E-01	 9.010E+01	-2.164E+01	 9.491E+01
   35.7500	 6.779E+00	-3.149E+01	 3.225E+01	-1.178E+01	 3.149E+01	-1.238E+01	 0.000E+00	 6.754E+00	 0.000E+00	 8.619E-01	 4.923E-01	-1.212E-01	 9.021E+01	-2.093E+01	 9.491E+01
   38.5000	 6.780E+00	-3.093E+01	 3.165E+01	-1.156E+01	 3.172E+01	-1.220E+01	 0.000E+00	 6.761E+00	 0.000E+00	 8.626E-01	 4.905E-01	-1.238E-01	 8.979E+01	-1.943E+01	 9.468E+01
   41.2500	 6.774E+00	-2.804E+01	 2.885E+01	-1.307E+01	 3.170E+01	-1.202E+01	 0.000E+00	 6.767E+00	 0.000E+00	 8.635E-01	 4.886E-01	-1.252E-01	 8.903E+01	-1.760E+01	 9.429E+01
   44.0000	 6.785E+00	-2.775E+01	 2.872E+01	-1.431E+01	 3.086E+01	-1.232E+01	 0.000E+00	 6.769E+00	 0.000E+00	 8.645E-01	 4.865E-01	-1.261E-01	 8.825E+01	-1.609E+01	 9.395E+01
   46.7500	 6.804E+00	-2.825E+01	 2.907E+01	-1.306E+01	 3.024E+01	-1.290E+01	 0.000E+00	 6.774E+00	 0.000E+00	 8.658E-01	 4.844E-01	-1.257E-01	 8.728E+01	-1.463E+01	 9.377E+01
   49.5000	 6.785E+00	-2.893E+01	 2.993E+01	-1.420E+01	 2.990E+01	-1.295E+01	 0.000E+00	 6.783E+00	 0.000E+00	 8.671E-01	 4.821E-01	-1.256E-01	 8.606E+01	-1.279E+01	 9.336E+01
   52.2500	 6.823E+00	-3.012E+01	 3.111E+01	-1.380E+01	 2.991E+01	-1.332E+01	 0.000E+00	 6.783E+00	 0.000E+00	 8.682E-01	 4.797E-01	-1.270E-01	 8.483E+01	-1.077E+01	 9.300E+01
   55.0000	 6.778E+00	-2.964E+01	 3.060E+01	-1.371E+01	 3.026E+01	-1.346E+01	 0.000E+00	 6.795E+00	 0.000E+00	 8.691E-01	 4.776E-01	-1.287E-01	 8.376E+01	-8.922E+00	 9.273E+01
   57.7500	 6.816E+00	-3.006E+01	 3.073E+01	-1.142E+01	 3.036E+01	-1.353E+01	 0.000E+00	 6.790E+00	 0.000E+00	 8.698E-01	 4.761E-01	-1.299E-01	 8.325E+01	-7.995E+00	 9.268E+01
   60.5000	 6.789E+00	-3.139E+01	 3.210E+01	-1.144E+01	 3.047E+01	-1.291E+01	 0.000E+00	 6.797E+00	 0.000E+00	 8.702E-01	 4.750E-01	-1.306E-01	 8.305E+01	-7.738E+00	 9.269E+01
   63.2500	 6.810E+00	-2.959E+01	 3.052E+01	-1.349E+01	 3.094E+01	-1.248E+01	 0.000E+00	 6.795E+00	 0.000E+00	 8.704E-01	 4.744E-01	-1.315E-01	 8.288E+01	-7.557E+00	 9.276E+01
   66.0000	 6.799E+00	-2.858E+01	 2.963E+01	-1.462E+01	 3.082E+01	-1.277E+01	 0.000E+00	 6.799E+00	 0.000E+00	 8.705E-01	 4.742E-01	-1.322E-01	 8.267E+01	-7.464E+00	 9.265E+01
   68.7500	 6.789E+00	-2.767E+01	 2.906E+01	-1.714E+01	 3.047E+01	-1.331E+01	 0.000E+00	 6.799E+00	 0.000E+00	 8.704E-01	 4.742E-01	-1.324E-01	 8.237E+01	-7.163E+00	 9.261E+01
   71.5000	 6.792E+00	-2.738E+01	 2.829E+01	-1.400E+01	 3.006E+01	-1.443E+01	 0.000E+00	 6.796E+00	 0.000E+00	 8.703E-01	 4.745E-01	-1.320E-01	 8.203E+01	-6.852E+00	 9.246E+01
   74.2500	 6.771E+00	-2.844E+01	 2.926E+01	-1.296E+01	 2.954E+01	-1.431E+01	 0.000E+00	 6.795E+00	 0.000E+00	 8.701E-01	 4.749E-01	-1.321E-01	 8.172E+01	-6.453E+00	 9.251E+01
   77.0000	 6.783E+00	-2.859E+01	 2.921E+01	-1.137E+01	 2.946E+01	-1.391E+01	 0.000E+00	 6.788E+00	 0.000E+00	 8.697E-01	 4.754E-01	-1.328E-01	 8.144E+01	-6.038E+00	 9.255E+01
   79.7500	 6.745E+00	-3.047E+01	 3.119E+01	-1.172E+01	 2.939E+01	-1.317E+01	 0.000E+00	 6.787E+00	 0.000E+00	 8.692E-01	 4.762E-01	-1.330E-01	 8.139E+01	-5.992E+00	 9.270E+01
   82.5000	 6.792E+00	-3.001E+01	 3.107E+01	-1.433E+01	 2.991E+01	-1.275E+01	 0.000E+00	 6.775E+00	 0.000E+00	 8.687E-01	 4.771E-01	-1.331E-01	 8.128E+01	-5.773E+00	 9.266E+01
   85.2500	 6.754E+00	-3.069E+01	 3.175E+01	-1.411E+01	 3.025E+01	-1.321E+01	 0.000E+00	 6.780E+00	 0.000E+00	 8.681E-01	 4.781E-01	-1.333E-01	 8.142E+01	-5.960E+00	 9.256E+01
   88.0000	 6.788E+00	-2.950E+01	 3.058E+01	-1.453E+01	 3.069E+01	-1.347E+01	 0.000E+00	 6.772E+00	 0.000E+00	 8.675E-01	 4.792E-01	-1.333E-01	 8.141E+01	-5.983E+00	 9.250E+01
   90.7500	 6.772E+00	-2.910E+01	 2.999E+01	-1.337E+01	 3.066E+01	-1.378E+01	 0.000E+00	 6.777E+00	 0.000E+00	 8.669E-01	 4.803E-01	-1.334E-01	 8.159E+01	-6.293E+00	 9.246E+01
   93.5000	 6.766E+00	-2.734E+01	 2.809E+01	-1.279E+01	 3.046E+01	-1.366E+01	 0.000E+00	 6.775E+00	 0.000E+00	 8.664E-01	 4.812E-01	-1.331E-01	 8.164E+01	-6.358E+00	 9.262E+01
   96.2500	 6.760E+00	-2.795E+01	 2.877E+01	-1.317E+01	 2.977E+01	-1.341E+01	 0.000E+00	 6.773E+00	 0.000E+00	 8.661E-01	 4.819E-01	-1.328E-01	 8.176E+01	-6.484E+00	 9.258E+01
   99.0000	 6.764E+00	-2.728E+01	 2.818E+01	-1.394E+01	 2.948E+01	-1.334E+01	 0.000E+00	 6.769E+00	 0.000E+00	 8.660E-01	 4.823E-01	-1.325E-01	 8.186E+01	-6.553E+00	 9.263E+01
  101.7500	 6.784E+00	-2.837E+01	 2.966E+01	-1.624E+01	 2.910E+01	-1.351E+01	 0.000E+00	 6.768E+00	 0.000E+00	 8.659E-01	 4.823E-01	-1.327E-01	 8.193E+01	-6.555E+00	 9.246E+01
  104.5000	 6.768E+00	-2.813E+01	 2.945E+01	-1.652E+01	 2.926E+01	-1.431E+01	 0.000E+00	 6.772E+00	 0.000E+00	 8.660E-01	 4.820E-01	-1.330E-01	 8.215E+01	-6.811E+00	 9.245E+01
  107.2500	 6.808E+00	-2.961E+01	 3.045E+01	-1.284E+01	 2.932E+01	-1.495E+01	 0.000E+00	 6.771E+00	 0.000E+00	 8.664E-01	 4.814E-01	-1.327E-01	 8.217E+01	-6.852E+00	 9.240E+01
  110.0000	 6.766E+00	-2.947E+01	 3.007E+01	-1.104E+01	 2.965E+01	-1.434E+01	 0.000E+00	 6.782E+00	 0.000E+00	 8.666E-01	 4.807E-01	-1.337E-01	 8.252E+01	-7.212E+00	 9.251E+01
  112.7500	 6.813E+00	-2.879E+01	 2.952E+01	-1.225E+01	 2.977E+01	-1.337E+01	 0.000E+00	 6.777E+00	 0.000E+00	 8.670E-01	 4.798E-01	-1.344E-01	 8.274E+01	-7.418E+00	 9.262E+01
  115.5000	 6.793E+00	-2.813E+01	 2.888E+01	-1.251E+01	 2.970E+01	-1.305E+01	 0.000E+00	 6.788E+00	 0.000E+00	 8.677E-01	 4.788E-01	-1.334E-01	 8.298E+01	-7.863E+00	 9.266E+01
  118.2500	 6.826E+00	-2.760E+01	 2.894E+01	-1.678E+01	 2.946E+01	-1.289E+01	 0.000E+00	 6.789E+00	 0.000E+00	 8.684E-01	 4.777E-01	-1.329E-01	 8.314E+01	-8.080E+00	 9.264E+01
  121.0000	 6.817E+00	-2.750E+01	 2.868E+01	-1.580E+01	 2.930E+01	-1.403E+01	 0.000E+00	 6.800E+00	 0.000E+00	 8.690E-01	 4.765E-01	-1.331E-01	 8.326E+01	-8.362E+00	 9.243E+01
  123.7500	 6.817E+00	-2.794E+01	 2.920E+01	-1.617E+01	 2.912E+01	-1.455E+01	 0.000E+00	 6.805E+00	 0.000E+00	 8.698E-01	 4.752E-01	-1.332E-01	 8.321E+01	-8.398E+00	 9.242E+01
  126.5000	 6.818E+00	-2.843E+01	 2.935E+01	-1.371E+01	 2.914E+01	-1.502E+01	 0.000E+00	 6.808E+00	 0.000E+00	 8.705E-01	 4.738E-01	-1.330E-01	 8.319E+01	-8.419E+00	 9.236E+01
  129.2500	 6.808E+00	-2.824E+01	 2.897E+01	-1.240E+01	 2.920E+01	-1.464E+01	 0.000E+00	 6.811E+00	 0.000E+00	 8.713E-01	 4.725E-01	-1.329E-01	 8.329E+01	-8.491E+00	 9.252E+01
  132.0000	 6.827E+00	-2.902E+01	 2.976E+01	-1.218E+01	 2.913E+01	-1.398E+01	 0.000E+00	 6.810E+00	 0.000E+00	 8.719E-01	 4.713E-01	-1.328E-01	 8.335E+01	-8.549E+00	 9.255E+01
  134.7500	 6.794E+00	-2.974E+01	 3.063E+01	-1.320E+01	 2.931E+01	-1.346E+01	 0.000E+00	 6.815E+00	 0.000E+00	 8.724E-01	 4.704E-01	-1.330E-01	 8.353E+01	-8.836E+00	 9.266E+01
  137.5000	 6.844E+00	-3.003E+01	 3.123E+01	-1.520E+01	 2.970E+01	-1.338E+01	 0.000E+00	 6.809E+00	 0.000E+00	 8.726E-01	 4.697E-01	-1.336E-01	 8.347E+01	-8.793E+00	 9.253E+01
  140.2500	 6.804E+00	-2.987E+01	 3.116E+01	-1.574E+01	 3.014E+01	-1.391E+01	 0.000E+00	 6.819E+00	 0.000E+00	 8.728E-01	 4.694E-01	-1.342E-01	 8.357E+01	-9.007E+00	 9.248E+01
  143.0000	 6.834E+00	-2.894E+01	 2.984E+01	-1.350E+01	 3.044E+01	-1.445E+01	 0.000E+00	 6.815E+00	 0.000E+00	 8.728E-01	 4.693E-01	-1.340E-01	 8.352E+01	-9.019E+00	 9.248E+01
  145.7500	 6.810E+00	-2.897E+01	 2.972E+01	-1.236E+01	 3.027E+01	-1.417E+01	 0.000E+00	 6.820E+00	 0.000E+00	 8.728E-01	 4.694E-01	-1.339E-01	 8.359E+01	-9.212E+00	 9.253E+01
  148.5000	 6.804E+00	-2.915E+01	 2.993E+01	-1.251E+01	 3.011E+01	-1.364E+01	 0.000E+00	 6.817E+00	 0.000E+00	 8.725E-01	 4.697E-01	-1.346E-01	 8.355E+01	-9.094E+00	 9.271E+01
  151.2500	 6.792E+00	-2.899E+01	 2.978E+01	-1.266E+01	 3.005E+01	-1.331E+01	 0.000E+00	 6.813E+00	 0.000E+00	 8.723E-01	 4.702E-01	-1.343E-01	 8.333E+01	-8.936E+00	 9.265E+01
  154.0000	 6.793E+00	-2.973E+01	 3.086E+01	-1.483E+01	 2.997E+01	-1.312E+01	 0.000E+00	 6.807E+00	 0.000E+00	 8.719E-01	 4.708E-01	-1.345E-01	 8.313E+01	-8.647E+00	 9.260E+01
  156.7500	 6.805E+00	-2.959E+01	 3.065E+01	-1.442E+01	 3.023E+01	-1.362E+01	 0.000E+00	 6.803E+00	 0.000E+00	 8.714E-01	 4.715E-01	-1.355E-01	 8.301E+01	-8.491E+00	 9.241E+01
  159.5000	 6.774E+00	-3.025E+01	 3.124E+01	-1.379E+01	 3.036E+01	-1.385E+01	 0.000E+00	 6.804E+00	 0.000E+00	 8.710E-01	 4.722E-01	-1.357E-01	 8.294E+01	-8.467E+00	 9.246E+01
  162.2500	 6.806E+00	-2.994E+01	 3.067E+01	-1.196E+01	 3.062E+01	-1.383E+01	 0.000E+00	 6.795E+00	 0.000E+00	 8.706E-01	 4.731E-01	-1.353E-01	 8.271E+01	-8.172E+00	 9.250E+01
  165.0000	 6.762E+00	-2.977E+01	 3.046E+01	-1.166E+01	 3.063E+01	-1.329E+01	 0.000E+00	 6.798E+00	 0.000E+00	 8.701E-01	 4.739E-01	-1.356E-01	 8.274E+01	-8.205E+00	 9.268E+01
  167.7500	 6.802E+00	-3.007E+01	 3.097E+01	-1.319E+01	 3.058E+01	-1.281E+01	 0.000E+00	 6.788E+00	 0.000E+00	 8.697E-01	 4.747E-01	-1.353E-01	 8.249E+01	-7.938E+00	 9.270E+01
  170.5000	 6.780E+00	-2.900E+01	 3.009E+01	-1.476E+01	 3.070E+01	-1.292E+01	 0.000E+00	 6.792E+00	 0.000E+00	 8.693E-01	 4.755E-01	-1.351E-01	 8.241E+01	-7.927E+00	 9.259E+01
  173.2500	 6.804E+00	-2.900E+01	 3.056E+01	-1.765E+01	 3.052E+01	-1.346E+01	 0.000E+00	 6.788E+00	 0.000E+00	 8.689E-01	 4.761E-01	-1.356E-01	 8.222E+01	-7.606E+00	 9.253E+01
  176.0000	 6.794E+00	-2.863E+01	 2.958E+01	-1.389E+01	 3.053E+01	-1.468E+01	 0.000E+00	 6.793E+00	 0.000E+00	 8.687E-01	 4.764E-01	-1.355E-01	 8.208E+01	-7.460E+00	 9.239E+01
  178.7500	 6.786E+00	-2.844E+01	 2.928E+01	-1.317E+01	 3.025E+01	-1.445E+01	 0.000E+00	 6.793E+00	 0.000E+00	 8.686E-01	 4.766E-01	-1.356E-01	 8.195E+01	-7.146E+00	 9.251E+01
  181.5000	 6.794E+00	-2.835E+01	 2.903E+01	-1.198E+01	 2.997E+01	-1.408E+01	 0.000E+00	 6.791E+00	 0.000E+00	 8.686E-01	 4.766E-01	-1.357E-01	 8.179E+01	-6.828E+00	 9.251E+01
  184.2500	 6.785E+00	-2.867E+01	 2.946E+01	-1.266E+01	 2.969E+01	-1.346E+01	 0.000E+00	 6.792E+00	 0.000E+00	 8.688E-01	 4.764E-01	-1.350E-01	 8.168E+01	-6.679E+00	 9.263E+01
  187.0000	 6.807E+00	-2.945E+01	 3.038E+01	-1.356E+01	 2.962E+01	-1.323E+01	 0.000E+00	 6.790E+00	 0.000E+00	 8.689E-01	 4.761E-01	-1.355E-01	 8.159E+01	-6.424E+00	 9.253E+01
  189.7500	 6.779E+00	-3.024E+01	 3.150E+01	-1.553E+01	 2.985E+01	-1.333E+01	 0.000E+00	 6.795E+00	 0.000E+00	 8.690E-01	 4.758E-01	-1.361E-01	 8.172E+01	-6.539E+00	 9.254E+01
  192.5000	 6.828E+00	-2.780E+01	 2.882E+01	-1.466E+01	 3.033E+01	-1.397E+01	 0.000E+00	 6.790E+00	 0.000E+00	 8.693E-01	 4.753E-01	-1.358E-01	 8.165E+01	-6.325E+00	 9.245E+01
  195.2500	 6.790E+00	-2.808E+01	 2.893E+01	-1.339E+01	 2.989E+01	-1.417E+01	 0.000E+00	 6.801E+00	 0.000E+00	 8.696E-01	 4.748E-01	-1.354E-01	 8.174E+01	-6.371E+00	 9.245E+01
  198.0000	 6.827E+00	-2.772E+01	 2.842E+01	-1.219E+01	 2.961E+01	-1.394E+01	 0.000E+00	 6.798E+00	 0.000E+00	 8.699E-01	 4.743E-01	-1.353E-01	 8.176E+01	-6.244E+00	 9.256E+01
  200.7500	 6.811E+00	-2.783E+01	 2.852E+01	-1.217E+01	 2.926E+01	-1.343E+01	 0.000E+00	 6.807E+00	 0.000E+00	 8.703E-01	 4.737E-01	-1.350E-01	 8.184E+01	-6.335E+00	 9.262E+01
  203.5000	 6.813E+00	-2.786E+01	 2.901E+01	-1.557E+01	 2.905E+01	-1.306E+01	 0.000E+00	 6.808E+00	 0.000E+00	 8.706E-01	 4.732E-01	-1.347E-01	 8.172E+01	-5.953E+00	 9.267E+01
  206.2500	 6.800E+00	-2.800E+01	 2.899E+01	-1.439E+01	 2.903E+01	-1.379E+01	 0.000E+00	 6.809E+00	 0.000E+00	 8.709E-01	 4.727E-01	-1.347E-01	 8.178E+01	-5.876E+00	 9.243E+01
  209.0000	 6.804E+00	-2.811E+01	 2.932E+01	-1.582E+01	 2.902E+01	-1.397E+01	 0.000E+00	 6.806E+00	 0.000E+00	 8.711E-01	 4.722E-01	-1.347E-01	 8.192E+01	-5.855E+00	 9.242E+01
  211.7500	 6.811E+00	-2.912E+01	 3.012E+01	-1.417E+01	 2.911E+01	-1.451E+01	 0.000E+00	 6.806E+00	 0.000E+00	 8.713E-01	 4.719E-01	-1.344E-01	 8.210E+01	-5.978E+00	 9.231E+01
  214.5000	 6.789E+00	-2.840E+01	 2.927E+01	-1.338E+01	 2.940E+01	-1.441E+01	 0.000E+00	 6.807E+00	 0.000E+00	 8.715E-01	 4.718E-01	-1.341E-01	 8.239E+01	-6.271E+00	 9.249E+01
  217.2500	 6.824E+00	-2.863E+01	 2.934E+01	-1.213E+01	 2.936E+01	-1.411E+01	 0.000E+00	 6.802E+00	 0.000E+00	 8.715E-01	 4.718E-01	-1.340E-01	 8.249E+01	-6.274E+00	 9.252E+01
  220.0000	 6.778E+00	-2.902E+01	 2.990E+01	-1.331E+01	 2.936E+01	-1.353E+01	 0.000E+00	 6.808E+00	 0.000E+00	 8.714E-01	 4.719E-01	-1.342E-01	 8.278E+01	-6.556E+00	 9.264E+01
  222.7500	 6.819E+00	-2.826E+01	 2.917E+01	-1.378E+01	 2.952E+01	-1.346E+01	 0.000E+00	 6.799E+00	 0.000E+00	 8.712E-01	 4.722E-01	-1.345E-01	 8.294E+01	-6.549E+00	 9.255E+01
  225.5000	 6.790E+00	-2.867E+01	 2.981E+01	-1.521E+01	 2.942E+01	-1.356E+01	 0.000E+00	 6.805E+00	 0.000E+00	 8.711E-01	 4.725E-01	-1.340E-01	 8.316E+01	-6.777E+00	 9.244E+01
  228.2500	 6.814E+00	-2.794E+01	 2.898E+01	-1.475E+01	 2.953E+01	-1.404E+01	 0.000E+00	 6.801E+00	 0.000E+00	 8.709E-01	 4.729E-01	-1.338E-01	 8.331E+01	-6.811E+00	 9.244E+01
  231.0000	 6.793E+00	-2.801E+01	 2.888E+01	-1.350E+01	 2.937E+01	-1.425E+01	 0.000E+00	 6.805E+00	 0.000E+00	 8.706E-01	 4.733E-01	-1.342E-01	 8.353E+01	-7.119E+00	 9.242E+01
  233.7500	 6.793E+00	-2.902E+01	 2.992E+01	-1.348E+01	 2.923E+01	-1.403E+01	 0.000E+00	 6.801E+00	 0.000E+00	 8.703E-01	 4.738E-01	-1.345E-01	 8.353E+01	-7.112E+00	 9.254E+01
  236.5000	 6.790E+00	-2.882E+01	 2.957E+01	-1.240E+01	 2.943E+01	-1.387E+01	 0.000E+00	 6.799E+00	 0.000E+00	 8.701E-01	 4.742E-01	-1.347E-01	 8.361E+01	-7.262E+00	 9.250E+01
  239.2500	 6.782E+00	-2.915E+01	 3.013E+01	-1.400E+01	 2.947E+01	-1.344E+01	 0.000E+00	 6.796E+00	 0.000E+00	 8.698E-01	 4.746E-01	-1.350E-01	 8.370E+01	-7.348E+00	 9.256E+01
  242.0000	 6.801E+00	-2.997E+01	 3.106E+01	-1.450E+01	 2.966E+01	-1.360E+01	 0.000E+00	 6.792E+00	 0.000E+00	 8.697E-01	 4.749E-01	-1.348E-01	 8.380E+01	-7.569E+00	 9.247E+01
  244.7500	 6.770E+00	-2.884E+01	 2.978E+01	-1.379E+01	 3.007E+01	-1.386E+01	 0.000E+00	 6.795E+00	 0.000E+00	 8.696E-01	 4.752E-01	-1.343E-01	 8.397E+01	-7.989E+00	 9.255E+01
  247.5000	 6.820E+00	-2.877E+01	 2.978E+01	-1.429E+01	 2.999E+01	-1.384E+01	 0.000E+00	 6.787E+00	 0.000E+00	 8.694E-01	 4.754E-01	-1.345E-01	 8.381E+01	-7.955E+00	 9.245E+01
  250.2500	 6.782E+00	-2.963E+01	 3.067E+01	-1.426E+01	 2.993E+01	-1.397E+01	 0.000E+00	 6.797E+00	 0.000E+00	 8.693E-01	 4.755E-01	-1.352E-01	 8.379E+01	-8.174E+00	 9.250E+01
  253.0000	 6.820E+00	-2.805E+01	 2.901E+01	-1.418E+01	 3.014E+01	-1.406E+01	 0.000E+00	 6.793E+00	 0.000E+00	 8.693E-01	 4.754E-01	-1.353E-01	 8.359E+01	-8.105E+00	 9.256E+01
  255.7500	 6.805E+00	-2.849E+01	 2.931E+01	-1.302E+01	 2.981E+01	-1.409E+01	 0.000E+00	 6.801E+00	 0.000E+00	 8.694E-01	 4.752E-01	-1.353E-01	 8.350E+01	-8.188E+00	 9.255E+01
  258.5000	 6.803E+00	-2.912E+01	 3.001E+01	-1.335E+01	 2.967E+01	-1.378E+01	 0.000E+00	 6.802E+00	 0.000E+00	 8.695E-01	 4.749E-01	-1.358E-01	 8.339E+01	-8.122E+00	 9.263E+01
  261.2500	 6.796E+00	-2.878E+01	 2.953E+01	-1.240E+01	 2.977E+01	-1.365E+01	 0.000E+00	 6.802E+00	 0.000E+00	 8.697E-01	 4.745E-01	-1.361E-01	 8.324E+01	-8.193E+00	 9.254E+01
  264.0000	 6.800E+00	-2.928E+01	 3.029E+01	-1.411E+01	 2.970E+01	-1.329E+01	 0.000E+00	 6.800E+00	 0.000E+00	 8.699E-01	 4.740E-01	-1.361E-01	 8.299E+01	-8.116E+00	 9.258E+01
  266.7500	 6.818E+00	-2.898E+01	 3.002E+01	-1.439E+01	 2.987E+01	-1.353E+01	 0.000E+00	 6.800E+00	 0.000E+00	 8.702E-01	 4.735E-01	-1.360E-01	 8.276E+01	-8.113E+00	 9.246E+01
  269.5000	 6.794E+00	-2.920E+01	 3.032E+01	-1.488E+01	 2.991E+01	-1.378E+01	 0.000E+00	 6.806E+00	 0.000E+00	 8.705E-01	 4.729E-01	-1.360E-01	 8.265E+01	-8.281E+00	 9.252E+01
  272.2500	 6.832E+00	-2.907E+01	 3.009E+01	-1.429E+01	 3.003E+01	-1.410E+01	 0.000E+00	 6.802E+00	 0.000E+00	 8.708E-01	 4.724E-01	-1.360E-01	 8.233E+01	-8.085E+00	 9.250E+01
  275.0000	 6.788E+00	-2.896E+01	 2.977E+01	-1.279E+01	 3.005E+01	-1.416E+01	 0.000E+00	 6.811E+00	 0.000E+00	 8.710E-01	 4.719E-01	-1.364E-01	 8.225E+01	-8.156E+00	 9.260E+01
  277.7500	 6.826E+00	-2.852E+01	 2.935E+01	-1.308E+01	 2.997E+01	-1.376E+01	 0.000E+00	 6.804E+00	 0.000E+00	 8.712E-01	 4.714E-01	-1.368E-01	 8.198E+01	-7.834E+00	 9.262E+01
  280.5000	 6.802E+00	-2.866E+01	 2.962E+01	-1.393E+01	 2.979E+01	-1.356E+01	 0.000E+00	 6.811E+00	 0.000E+00	 8.715E-01	 4.710E-01	-1.366E-01	 8.196E+01	-7.927E+00	 9.262E+01
  283.2500	 6.825E+00	-2.836E+01	 2.955E+01	-1.562E+01	 2.974E+01	-1.367E+01	 0.000E+00	 6.808E+00	 0.000E+00	 8.717E-01	 4.707E-01	-1.360E-01	 8.180E+01	-7.760E+00	 9.266E+01
  286.0000	 6.818E+00	-2.850E+01	 2.955E+01	-1.469E+01	 2.968E+01	-1.424E+01	 0.000E+00	 6.813E+00	 0.000E+00	 8.719E-01	 4.705E-01	-1.358E-01	 8.162E+01	-7.634E+00	 9.248E+01
  288.7500	 6.809E+00	-2.995E+01	 3.119E+01	-1.548E+01	 2.964E+01	-1.437E+01	 0.000E+00	 6.815E+00	 0.000E+00	 8.719E-01	 4.703E-01	-1.360E-01	 8.142E+01	-7.415E+00	 9.249E+01
  291.5000	 6.810E+00	-2.874E+01	 2.946E+01	-1.216E+01	 3.010E+01	-1.469E+01	 0.000E+00	 6.813E+00	 0.000E+00	 8.719E-01	 4.704E-01	-1.363E-01	 8.130E+01	-7.242E+00	 9.242E+01
  294.2500	 6.793E+00	-2.940E+01	 3.019E+01	-1.257E+01	 2.991E+01	-1.395E+01	 0.000E+00	 6.812E+00	 0.000E+00	 8.718E-01	 4.705E-01	-1.364E-01	 8.133E+01	-7.100E+00	 9.255E+01
  297.0000	 6.808E+00	-2.995E+01	 3.076E+01	-1.249E+01	 2.999E+01	-1.355E+01	 0.000E+00	 6.806E+00	 0.000E+00	 8.717E-01	 4.708E-01	-1.358E-01	 8.141E+01	-6.976E+00	 9.258E+01
  299.7500	 6.776E+00	-2.872E+01	 2.958E+01	-1.323E+01	 3.021E+01	-1.324E+01	 0.000E+00	 6.807E+00	 0.000E+00	 8.716E-01	 4.712E-01	-1.349E-01	 8.161E+01	-7.142E+00	 9.266E+01
  302.5000	 6.824E+00	-2.888E+01	 3.001E+01	-1.511E+01	 3.003E+01	-1.324E+01	 0.000E+00	 6.798E+00	 0.000E+00	 8.713E-01	 4.717E-01	-1.352E-01	 8.153E+01	-6.761E+00	 9.248E+01
  305.2500	 6.785E+00	-2.951E+01	 3.082E+01	-1.603E+01	 3.002E+01	-1.379E+01	 0.000E+00	 6.805E+00	 0.000E+00	 8.710E-01	 4.723E-01	-1.355E-01	 8.161E+01	-6.801E+00	 9.238E+01
  308.0000	 6.820E+00	-2.786E+01	 2.884E+01	-1.435E+01	 3.026E+01	-1.444E+01	 0.000E+00	 6.800E+00	 0.000E+00	 8.706E-01	 4.728E-01	-1.357E-01	 8.166E+01	-6.549E+00	 9.239E+01
  310.7500	 6.798E+00	-2.854E+01	 2.930E+01	-1.258E+01	 2.984E+01	-1.441E+01	 0.000E+00	 6.805E+00	 0.000E+00	 8.703E-01	 4.734E-01	-1.356E-01	 8.189E+01	-6.551E+00	 9.241E+01
  313.5000	 6.792E+00	-2.862E+01	 2.915E+01	-1.063E+01	 2.968E+01	-1.388E+01	 0.000E+00	 6.803E+00	 0.000E+00	 8.701E-01	 4.739E-01	-1.350E-01	 8.205E+01	-6.408E+00	 9.262E+01
  316.2500	 6.776E+00	-2.852E+01	 2.907E+01	-1.077E+01	 2.953E+01	-1.293E+01	 0.000E+00	 6.800E+00	 0.000E+00	 8.699E-01	 4.745E-01	-1.348E-01	 8.227E+01	-6.452E+00	 9.258E+01
  319.0000	 6.787E+00	-2.916E+01	 3.040E+01	-1.573E+01	 2.939E+01	-1.230E+01	 0.000E+00	 6.793E+00	 0.000E+00	 8.697E-01	 4.749E-01	-1.346E-01	 8.241E+01	-6.383E+00	 9.261E+01
  321.7500	 6.799E+00	-2.896E+01	 3.021E+01	-1.582E+01	 2.969E+01	-1.330E+01	 0.000E+00	 6.791E+00	 0.000E+00	 8.696E-01	 4.753E-01	-1.334E-01	 8.248E+01	-6.442E+00	 9.235E+01
  324.5000	 6.781E+00	-2.852E+01	 2.984E+01	-1.635E+01	 2.984E+01	-1.404E+01	 0.000E+00	 6.794E+00	 0.000E+00	 8.694E-01	 4.756E-01	-1.338E-01	 8.275E+01	-6.577E+00	 9.230E+01
  327.2500	 6.816E+00	-2.899E+01	 2.985E+01	-1.315E+01	 2.984E+01	-1.471E+01	 0.000E+00	 6.790E+00	 0.000E+00	 8.692E-01	 4.758E-01	-1.346E-01	 8.294E+01	-6.557E+00	 9.230E+01
  330.0000	 6.771E+00	-2.876E+01	 2.924E+01	-1.015E+01	 2.984E+01	-1.426E+01	 0.000E+00	 6.797E+00	 0.000E+00	 8.692E-01	 4.758E-01	-1.346E-01	 8.323E+01	-6.766E+00	 9.256E+01
  332.7500	 6.812E+00	-2.841E+01	 2.904E+01	-1.155E+01	 2.966E+01	-1.306E+01	 0.000E+00	 6.790E+00	 0.000E+00	 8.692E-01	 4.758E-01	-1.344E-01	 8.332E+01	-6.600E+00	 9.264E+01
  335.5000	 6.789E+00	-2.917E+01	 3.019E+01	-1.426E+01	 2.948E+01	-1.262E+01	 0.000E+00	 6.796E+00	 0.000E+00	 8.694E-01	 4.756E-01	-1.341E-01	 8.351E+01	-6.791E+00	 9.264E+01
  338.2500	 6.822E+00	-2.767E+01	 2.916E+01	-1.769E+01	 2.969E+01	-1.310E+01	 0.000E+00	 6.794E+00	 0.000E+00	 8.696E-01	 4.753E-01	-1.339E-01	 8.349E+01	-6.716E+00	 9.256E+01
  341.0000	 6.806E+00	-2.830E+01	 2.953E+01	-1.592E+01	 2.953E+01	-1.444E+01	 0.000E+00	 6.802E+00	 0.000E+00	 8.698E-01	 4.750E-01	-1.336E-01	 8.344E+01	-6.776E+00	 9.231E+01
  343.7500	 6.806E+00	-2.956E+01	 3.060E+01	-1.428E+01	 2.953E+01	-1.487E+01	 0.000E+00	 6.803E+00	 0.000E+00	 8.700E-01	 4.745E-01	-1.340E-01	 8.339E+01	-6.708E+00	 9.231E+01
  346.5000	 6.800E+00	-2.869E+01	 2.921E+01	-1.049E+01	 2.984E+01	-1.470E+01	 0.000E+00	 6.804E+00	 0.000E+00	 8.702E-01	 4.740E-01	-1.346E-01	 8.343E+01	-6.818E+00	 9.233E+01
  349.2500	 6.794E+00	-2.891E+01	 2.967E+01	-1.237E+01	 2.965E+01	-1.347E+01	 0.000E+00	 6.803E+00	 0.000E+00	 8.704E-01	 4.736E-01	-1.346E-01	 8.343E+01	-6.852E+00	 9.258E+01
  352.0000	 6.812E+00	-2.850E+01	 2.924E+01	-1.238E+01	 2.966E+01	-1.315E+01	 0.000E+00	 6.800E+00	 0.000E+00	 8.706E-01	 4.731E-01	-1.347E-01	 8.349E+01	-7.003E+00	 9.261E+01
  354.7500	 6.786E+00	-2.864E+01	 2.984E+01	-1.562E+01	 2.954E+01	-1.292E+01	 0.000E+00	 6.804E+00	 0.000E+00	 8.708E-01	 4.727E-01	-1.352E-01	 8.361E+01	-7.338E+00	 9.268E+01
  357.5000	 6.835E+00	-2.850E+01	 2.990E+01	-1.683E+01	 2.962E+01	-1.371E+01	 0.000E+00	 6.798E+00	 0.000E+00	 8.709E-01	 4.724E-01	-1.357E-01	 8.342E+01	-7.235E+00	 9.246E+01
  360.2500	 6.796E+00	-2.843E+01	 2.971E+01	-1.616E+01	 2.970E+01	-1.462E+01	 0.000E+00	 6.809E+00	 0.000E+00	 8.710E-01	 4.720E-01	-1.360E-01	 8.333E+01	-7.386E+00	 9.239E+01
  363.0000	 6.830E+00	-2.798E+01	 2.911E+01	-1.534E+01	 2.970E+01	-1.507E+01	 0.000E+00	 6.805E+00	 0.000E+00	 8.711E-01	 4.718E-01	-1.363E-01	 8.314E+01	-7.282E+00	 9.242E+01
  365.7500	 6.809E+00	-2.845E+01	 2.902E+01	-1.099E+01	 2.953E+01	-1.515E+01	 0.000E+00	 6.813E+00	 0.000E+00	 8.713E-01	 4.716E-01	-1.357E-01	 8.309E+01	-7.562E+00	 9.255E+01
  368.5000	 6.805E+00	-2.875E+01	 2.950E+01	-1.245E+01	 2.938E+01	-1.394E+01	 0.000E+00	 6.811E+00	 0.000E+00	 8.713E-01	 4.715E-01	-1.359E-01	 8.294E+01	-7.505E+00	 9.276E+01
  371.2500	 6.795E+00	-2.887E+01	 2.958E+01	-1.203E+01	 2.942E+01	-1.350E+01	 0.000E+00	 6.810E+00	 0.000E+00	 8.712E-01	 4.715E-01	-1.366E-01	 8.284E+01	-7.522E+00	 9.267E+01
  374.0000	 6.799E+00	-2.931E+01	 3.055E+01	-1.561E+01	 2.946E+01	-1.307E+01	 0.000E+00	 6.805E+00	 0.000E+00	 8.712E-01	 4.716E-01	-1.363E-01	 8.268E+01	-7.507E+00	 9.264E+01
  376.7500	 6.812E+00	-2.909E+01	 3.040E+01	-1.616E+01	 2.978E+01	-1.381E+01	 0.000E+00	 6.803E+00	 0.000E+00	 8.711E-01	 4.718E-01	-1.362E-01	 8.263E+01	-7.603E+00	 9.241E+01
  379.5000	 6.785E+00	-2.903E+01	 3.005E+01	-1.434E+01	 2.996E+01	-1.450E+01	 0.000E+00	 6.806E+00	 0.000E+00	 8.711E-01	 4.720E-01	-1.358E-01	 8.260E+01	-7.826E+00	 9.242E+01
  382.2500	 6.819E+00	-2.930E+01	 3.008E+01	-1.243E+01	 2.999E+01	-1.445E+01	 0.000E+00	 6.800E+00	 0.000E+00	 8.710E-01	 4.723E-01	-1.356E-01	 8.242E+01	-7.760E+00	 9.248E+01
  385.0000	 6.772E+00	-2.877E+01	 2.931E+01	-1.063E+01	 3.001E+01	-1.386E+01	 0.000E+00	 6.805E+00	 0.000E+00	 8.708E-01	 4.726E-01	-1.357E-01	 8.241E+01	-7.884E+00	 9.267E+01
  387.7500	 6.813E+00	-2.870E+01	 2.977E+01	-1.470E+01	 2.980E+01	-1.292E+01	 0.000E+00	 6.796E+00	 0.000E+00	 8.706E-01	 4.729E-01	-1.360E-01	 8.220E+01	-7.529E+00	 9.268E+01
  390.5000	 6.790E+00	-2.944E+01	 3.070E+01	-1.577E+01	 2.979E+01	-1.344E+01	 0.000E+00	 6.801E+00	 0.000E+00	 8.704E-01	 4.731E-01	-1.361E-01	 8.227E+01	-7.604E+00	 9.260E+01
  393.2500	 6.815E+00	-2.851E+01	 2.968E+01	-1.545E+01	 3.006E+01	-1.412E+01	 0.000E+00	 6.798E+00	 0.000E+00	 8.703E-01	 4.734E-01	-1.358E-01	 8.219E+01	-7.456E+00	 9.254E+01
  396.0000	 6.802E+00	-2.867E+01	 2.954E+01	-1.331E+01	 2.995E+01	-1.451E+01	 0.000E+00	 6.803E+00	 0.000E+00	 8.701E-01	 4.736E-01	-1.363E-01	 8.221E+01	-7.416E+00	 9.235E+01
  398.7500	 6.796E+00	-3.022E+01	 3.106E+01	-1.269E+01	 2.983E+01	-1.416E+01	 0.000E+00	 6.802E+00	 0.000E+00	 8.700E-01	 4.738E-01	-1.366E-01	 8.218E+01	-7.377E+00	 9.247E+01
  401.5000	 6.799E+00	-2.855E+01	 2.914E+01	-1.113E+01	 3.019E+01	-1.373E+01	 0.000E+00	 6.800E+00	 0.000E+00	 8.700E-01	 4.739E-01	-1.360E-01	 8.218E+01	-7.407E+00	 9.249E+01
  404.2500	 6.789E+00	-2.953E+01	 3.043E+01	-1.329E+01	 2.988E+01	-1.297E+01	 0.000E+00	 6.800E+00	 0.000E+00	 8.701E-01	 4.740E-01	-1.352E-01	 8.216E+01	-7.329E+00	 9.258E+01
  407.0000	 6.810E+00	-2.909E+01	 3.029E+01	-1.547E+01	 3.004E+01	-1.306E+01	 0.000E+00	 6.797E+00	 0.000E+00	 8.701E-01	 4.740E-01	-1.353E-01	 8.221E+01	-7.289E+00	 9.250E+01
  409.7500	 6.780E+00	-2.864E+01	 2.976E+01	-1.514E+01	 3.011E+01	-1.377E+01	 0.000E+00	 6.801E+00	 0.000E+00	 8.701E-01	 4.740E-01	-1.349E-01	 8.234E+01	-7.463E+00	 9.253E+01
  412.5000	 6.828E+00	-2.902E+01	 3.010E+01	-1.471E+01	 3.001E+01	-1.417E+01	 0.000E+00	 6.795E+00	 0.000E+00	 8.702E-01	 4.739E-01	-1.348E-01	 8.222E+01	-7.078E+00	 9.238E+01
  415.2500	 6.789E+00	-2.891E+01	 2.982E+01	-1.355E+01	 3.004E+01	-1.433E+01	 0.000E+00	 6.804E+00	 0.000E+00	 8.702E-01	 4.737E-01	-1.351E-01	 8.241E+01	-7.178E+00	 9.241E+01
  418.0000	 6.826E+00	-2.824E+01	 2.901E+01	-1.269E+01	 2.997E+01	-1.410E+01	 0.000E+00	 6.800E+00	 0.000E+00	 8.704E-01	 4.736E-01	-1.347E-01	 8.238E+01	-6.968E+00	 9.250E+01
  420.7500	 6.809E+00	-2.862E+01	 2.952E+01	-1.352E+01	 2.969E+01	-1.369E+01	 0.000E+00	 6.807E+00	 0.000E+00	 8.705E-01	 4.733E-01	-1.345E-01	 8.256E+01	-7.108E+00	 9.254E+01
  423.5000	 6.810E+00	-2.849E+01	 2.946E+01	-1.404E+01	 2.964E+01	-1.364E+01	 0.000E+00	 6.808E+00	 0.000E+00	 8.707E-01	 4.731E-01	-1.344E-01	 8.258E+01	-7.000E+00	 9.262E+01
  426.2500	 6.795E+00	-2.858E+01	 2.947E+01	-1.345E+01	 2.959E+01	-1.376E+01	 0.000E+00	 6.809E+00	 0.000E+00	 8.707E-01	 4.729E-01	-1.349E-01	 8.259E+01	-6.920E+00	 9.242E+01
  429.0000	 6.800E+00	-2.907E+01	 3.021E+01	-1.506E+01	 2.955E+01	-1.367E+01	 0.000E+00	 6.805E+00	 0.000E+00	 8.707E-01	 4.727E-01	-1.354E-01	 8.267E+01	-6.837E+00	 9.246E+01
  431.7500	 6.810E+00	-2.866E+01	 2.960E+01	-1.386E+01	 2.974E+01	-1.407E+01	 0.000E+00	 6.803E+00	 0.000E+00	 8.709E-01	 4.726E-01	-1.349E-01	 8.274E+01	-6.857E+00	 9.237E+01
  434.5000	 6.788E+00	-2.840E+01	 2.931E+01	-1.370E+01	 2.970E+01	-1.401E+01	 0.000E+00	 6.805E+00	 0.000E+00	 8.710E-01	 4.725E-01	-1.345E-01	 8.289E+01	-6.954E+00	 9.250E+01
  437.2500	 6.823E+00	-2.907E+01	 2.982E+01	-1.229E+01	 2.959E+01	-1.392E+01	 0.000E+00	 6.800E+00	 0.000E+00	 8.711E-01	 4.724E-01	-1.344E-01	 8.286E+01	-6.875E+00	 9.251E+01
  440.0000	 6.781E+00	-2.909E+01	 3.005E+01	-1.385E+01	 2.966E+01	-1.344E+01	 0.000E+00	 6.807E+00	 0.000E+00	 8.710E-01	 4.724E-01	-1.350E-01	 8.297E+01	-7.010E+00	 9.262E+01
  442.7500	 6.822E+00	-2.891E+01	 3.009E+01	-1.540E+01	 2.977E+01	-1.356E+01	 0.000E+00	 6.799E+00	 0.000E+00	 8.709E-01	 4.724E-01	-1.352E-01	 8.284E+01	-6.754E+00	 9.252E+01
  445.5000	 6.794E+00	-2.963E+01	 3.088E+01	-1.556E+01	 2.986E+01	-1.410E+01	 0.000E+00	 6.806E+00	 0.000E+00	 8.709E-01	 4.725E-01	-1.350E-01	 8.291E+01	-6.825E+00	 9.243E+01
  448.2500	 6.817E+00	-2.816E+01	 2.909E+01	-1.394E+01	 3.016E+01	-1.453E+01	 0.000E+00	 6.802E+00	 0.000E+00	 8.708E-01	 4.726E-01	-1.357E-01	 8.299E+01	-6.721E+00	 9.247E+01
  451.0000	 6.798E+00	-2.834E+01	 2.900E+01	-1.182E+01	 2.985E+01	-1.436E+01	 0.000E+00	 6.806E+00	 0.000E+00	 8.706E-01	 4.728E-01	-1.359E-01	 8.300E+01	-6.778E+00	 9.247E+01