# vtk DataFile Version 3.0
Low resolution, disturbed wind of YZ Slice at time = 104.5 seconds.
ASCII
DATASET STRUCTURED_POINTS
DIMENSIONS     1    49    17
ORIGIN     315.00    -251.00      11.00
SPACING      12.03      10.10      10.00
POINT_DATA             833
VECTORS Velocity float
      5.20      -0.17      -0.29
      5.31      -0.01       0.00
      5.32       0.10       0.08
      5.20      -0.05      -0.01
      4.99       0.05       0.09
      5.22      -0.07      -0.12
      5.28       0.01      -0.26
      5.26       0.05       0.02
      5.28       0.05      -0.15
      5.15       0.11       0.13
      5.21      -0.03       0.10
      5.03      -0.14      -0.02
      5.22      -0.19       0.07
      5.02       0.04      -0.03
      4.88      -0.06       0.00
      4.91      -0.20       0.02
      4.77      -0.16       0.09
      4.63      -0.29       0.10
      4.56      -0.25       0.16
      4.52      -0.36       0.15
      4.53      -0.33       0.23
      4.59      -0.41       0.48
      4.28      -0.70       0.13
      4.50      -0.71       0.29
      4.38      -0.38       0.05
      4.40      -0.55      -0.12
      4.50      -0.44       0.27
      4.54      -0.36       0.26
      4.75      -0.12      -0.06
      4.96      -0.35      -0.01
      4.99      -0.16       0.22
      4.93       0.15       0.13
      5.26      -0.20      -0.07
      5.03       0.11      -0.27
      5.27       0.04       0.07
      5.30       0.05       0.07
      5.46       0.11       0.04
      5.20       0.02      -0.01
      5.22       0.17       0.15
      5.37      -0.05      -0.13
      5.32       0.11       0.03
      5.23       0.10      -0.16
      5.20      -0.16      -0.03
      5.01      -0.04      -0.16
      5.23      -0.09      -0.13
      5.53      -0.18       0.08
      5.26      -0.11       0.22
      5.08      -0.10      -0.01
      5.15       0.15      -0.18
      5.69      -0.12      -0.14
      5.94       0.01      -0.13
      6.05      -0.02       0.07
      6.04      -0.13      -0.01
      6.10       0.06       0.02
      6.11      -0.07       0.18
      6.11       0.07      -0.14
      5.98      -0.18       0.14
      5.94       0.06       0.09
      5.96      -0.10      -0.03
      5.72       0.01      -0.16
      5.88       0.10      -0.04
      5.81      -0.03      -0.07
      5.68      -0.11       0.18
      5.62      -0.04       0.02
      5.41      -0.19       0.02
      5.41      -0.42       0.20
      5.44      -0.35       0.05
      5.27      -0.58       0.28
      5.15      -0.45       0.15
      4.99      -0.60       0.19
      4.86      -0.68       0.20
      5.10      -0.66       0.37
      4.97      -0.70       0.19
      5.06      -0.89      -0.00
      4.94      -0.45       0.12
      5.24      -0.49       0.34
      5.17      -0.44       0.30
      5.40      -0.35       0.15
      5.59      -0.18       0.02
      5.76      -0.32      -0.08
      5.75      -0.40      -0.08
      5.91      -0.28      -0.11
      5.98      -0.04      -0.17
      5.97      -0.13      -0.16
      6.07       0.14      -0.04
      5.96      -0.04       0.04
      5.86       0.01      -0.07
      6.07      -0.05      -0.04
      6.04       0.05       0.04
      5.94       0.05      -0.02
      5.89       0.01       0.15
      5.90      -0.13       0.01
      5.83       0.07       0.14
      6.01      -0.13      -0.12
      6.02       0.11      -0.20
      6.16      -0.07       0.01
      5.97      -0.07      -0.15
      5.98       0.04       0.02
      6.52       0.28       0.13
      6.48      -0.04      -0.26
      6.56       0.07       0.04
      6.63      -0.04      -0.00
      6.64      -0.05       0.25
      6.43      -0.12       0.01
      6.30      -0.08      -0.07
      6.69       0.04       0.00
      6.61      -0.05       0.13
      6.26      -0.26      -0.13
      6.41      -0.07       0.13
      6.15      -0.10      -0.02
      6.17      -0.27      -0.07
      6.20      -0.07       0.06
      6.15      -0.43       0.05
      6.06      -0.27       0.16
      5.85      -0.49       0.15
      5.67      -0.48       0.31
      5.62      -0.78      -0.02
      5.43      -0.65       0.22
      5.09      -0.52       0.30
      5.15      -0.59       0.30
      5.30      -0.73       0.26
      5.42      -0.75       0.23
      5.34      -0.59       0.06
      5.29      -0.73       0.22
      5.29      -0.55       0.22
      5.58      -0.54       0.34
      5.69      -0.62      -0.06
      5.59      -0.26       0.04
      5.90      -0.17      -0.09
      5.95       0.08       0.09
      6.38       0.02      -0.08
      6.23      -0.25       0.01
      6.38      -0.16      -0.15
      6.58       0.31       0.14
      6.45      -0.05      -0.06
      6.53       0.23       0.15
      6.56      -0.16      -0.11
      6.25       0.10      -0.11
      6.34       0.03      -0.12
      6.42       0.05       0.00
      6.46       0.20       0.07
      6.40      -0.14      -0.17
      6.57       0.12      -0.01
      6.36      -0.12      -0.16
      6.42      -0.01      -0.06
      6.42       0.13       0.09
      6.50      -0.04      -0.00
      6.72      -0.18       0.03
      6.87       0.01      -0.14
      6.92      -0.22       0.01
      6.85       0.08      -0.16
      7.01       0.25       0.07
      6.86      -0.18      -0.06
      6.99      -0.10       0.16
      6.78       0.25       0.07
      6.89       0.08       0.11
      6.90      -0.05       0.09
      6.74      -0.20       0.26
      6.58       0.00       0.17
      6.60      -0.06      -0.02
      6.45      -0.12      -0.01
      6.55      -0.43       0.15
      6.19      -0.28       0.03
      5.98      -0.20       0.23
      5.88      -0.67       0.18
      5.95      -0.63      -0.11
      5.57      -0.61       0.06
      5.54      -0.80       0.07
      5.46      -0.95       0.09
      5.34      -1.03       0.34
      5.33      -0.84       0.16
      5.50      -0.71       0.27
      5.71      -0.65       0.17
      5.64      -0.70       0.07
      5.89      -0.44       0.04
      5.95      -0.30       0.25
      6.03      -0.41       0.23
      6.22      -0.43       0.18
      6.42      -0.20      -0.02
      6.49      -0.19      -0.14
      6.53      -0.28       0.11
      6.51       0.02      -0.01
      6.70      -0.19      -0.03
      6.71      -0.01       0.02
      6.89       0.06      -0.03
      7.04       0.06      -0.31
      6.82       0.16      -0.06
      7.07      -0.06       0.16
      6.87       0.05       0.09
      6.70      -0.06      -0.04
      6.66      -0.06      -0.04
      6.82      -0.16      -0.15
      6.98       0.09       0.01
      6.84      -0.00       0.10
      6.97       0.03      -0.07
      6.81       0.13       0.13
      6.88      -0.08      -0.24
      7.19      -0.16       0.10
      7.06      -0.08       0.08
      7.07      -0.13      -0.00
      6.97       0.30      -0.18
      7.15       0.04       0.04
      7.18      -0.15       0.27
      6.97      -0.01      -0.06
      7.07      -0.07       0.11
      7.08      -0.10      -0.06
      6.92      -0.17      -0.03
      7.03       0.03       0.02
      6.81      -0.26       0.11
      6.77      -0.23       0.22
      6.77      -0.37      -0.03
      6.50      -0.34      -0.09
      6.32      -0.40       0.03
      5.96      -0.50       0.23
      6.13      -0.73       0.30
      5.70      -0.70       0.25
      5.68      -0.79       0.32
      5.67      -0.77       0.09
      5.53      -1.08       0.26
      5.48      -0.97       0.19
      5.74      -0.86       0.31
      5.69      -0.88       0.21
      5.89      -0.67       0.13
      5.89      -0.69       0.05
      6.08      -0.44       0.24
      6.38      -0.36       0.02
      6.68      -0.29       0.10
      6.83      -0.29      -0.00
      6.73      -0.34      -0.05
      6.81      -0.26       0.04
      7.00      -0.17      -0.05
      6.90      -0.14       0.11
      7.04      -0.05       0.01
      7.36       0.01      -0.17
      7.28       0.18      -0.04
      7.11       0.15      -0.16
      7.12      -0.20      -0.18
      7.25      -0.01      -0.10
      7.04      -0.17       0.22
      7.07      -0.01       0.26
      6.96      -0.14       0.03
      6.81       0.20       0.05
      7.15       0.04       0.19
      6.93       0.10      -0.07
      7.30      -0.11       0.08
      7.23      -0.14       0.01
      7.47      -0.07       0.02
      7.21      -0.01       0.01
      7.37      -0.18       0.25
      7.40       0.09      -0.10
      7.37       0.19      -0.10
      7.50      -0.10       0.16
      7.25      -0.29       0.10
      7.20      -0.02       0.14
      7.15      -0.03       0.04
      7.19      -0.17       0.07
      7.36      -0.29       0.03
      7.34       0.02       0.02
      7.22      -0.05       0.17
      7.18      -0.16      -0.02
      6.73      -0.47       0.16
      6.37      -0.53       0.22
      6.26      -0.41       0.02
      6.18      -0.52      -0.07
      5.89      -0.69       0.12
      5.73      -1.13       0.16
      5.69      -0.90       0.19
      5.65      -0.94       0.41
      5.56      -1.14       0.28
      5.71      -0.78       0.53
      5.79      -0.91       0.06
      6.16      -0.80       0.37
      5.90      -0.96       0.17
      6.50      -0.54       0.37
      6.45      -0.57       0.16
      6.65      -0.56      -0.00
      6.78      -0.29       0.01
      7.10      -0.15      -0.04
      7.01      -0.06       0.12
      7.33       0.07       0.03
      7.46       0.11       0.13
      7.32       0.13       0.17
      7.66       0.36      -0.01
      7.53       0.18       0.26
      7.67       0.08       0.12
      7.35       0.17       0.13
      7.40      -0.12      -0.06
      7.41      -0.22       0.01
      7.39       0.07       0.10
      7.49      -0.06      -0.21
      7.46       0.03       0.03
      7.33       0.13      -0.01
      7.39       0.16      -0.13
      7.38      -0.17      -0.14
      7.69      -0.36       0.12
      7.58       0.15      -0.16
      7.50      -0.01      -0.07
      7.59       0.03      -0.08
      7.52       0.12       0.11
      7.59      -0.10       0.13
      7.64      -0.21      -0.19
      7.74      -0.10      -0.02
      7.65      -0.10       0.17
      7.62      -0.13       0.17
      7.31      -0.01       0.19
      7.42       0.06      -0.07
      7.48      -0.28      -0.08
      7.11       0.06       0.06
      6.98      -0.18      -0.06
      6.73      -0.33       0.24
      6.76      -0.30       0.17
      6.53      -0.49       0.17
      6.01      -0.81       0.28
      6.10      -0.78       0.24
      5.71      -0.89       0.15
      5.68      -1.04       0.53
      5.55      -1.33       0.39
      5.67      -1.03       0.30
      5.60      -1.07       0.53
      5.84      -0.98       0.44
      5.88      -1.12       0.30
      6.10      -0.87       0.36
      6.32      -0.79       0.27
      6.64      -0.63       0.00
      6.88      -0.36      -0.03
      6.92      -0.40       0.10
      7.30      -0.05       0.03
      7.25      -0.19       0.12
      7.50       0.03       0.17
      7.63      -0.08       0.04
      7.72      -0.18       0.10
      7.70      -0.11       0.03
      7.75      -0.27       0.12
      7.64       0.17      -0.04
      7.55      -0.01      -0.09
      7.36       0.18      -0.05
      7.47      -0.18       0.29
      7.50       0.10      -0.02
      7.61      -0.09      -0.12
      7.53       0.01       0.03
      7.69      -0.26      -0.02
      7.76      -0.21      -0.04
      7.51       0.04      -0.11
      7.79      -0.24      -0.01
      7.73      -0.22       0.13
      7.65      -0.21       0.16
      7.74       0.03      -0.08
      7.78       0.17       0.06
      7.80       0.07       0.23
      7.86       0.10      -0.05
      7.94       0.18       0.06
      7.82      -0.05       0.09
      7.47      -0.20       0.17
      7.63      -0.11      -0.02
      7.74      -0.04       0.07
      7.45      -0.35       0.02
      7.19      -0.20       0.02
      7.13      -0.37       0.27
      7.04      -0.61       0.22
      6.77      -0.68       0.08
      6.68      -0.39       0.07
      6.40      -0.73       0.24
      6.23      -0.99       0.35
      6.06      -0.85       0.41
      5.92      -0.98       0.13
      5.71      -1.27       0.31
      5.95      -1.32       0.22
      5.67      -0.99       0.26
      5.84      -0.92       0.52
      5.96      -0.93       0.27
      6.30      -1.09       0.15
      6.52      -0.92       0.29
      6.76      -0.65       0.28
      6.97      -0.49       0.01
      7.06      -0.33       0.18
      7.13      -0.53       0.20
      7.41      -0.43       0.21
      7.60      -0.30      -0.10
      7.81      -0.15       0.15
      7.99      -0.16      -0.21
      7.69       0.02      -0.13
      7.85      -0.11       0.04
      7.81      -0.03      -0.04
      7.58      -0.02      -0.00
      7.77      -0.09      -0.05
      7.88       0.13       0.01
      7.79      -0.20      -0.07
      7.76      -0.20      -0.03
      7.87      -0.08       0.06
      7.65      -0.06       0.05
      7.86       0.14       0.15
      7.95       0.21      -0.03
      7.97       0.01      -0.18
      8.11      -0.00       0.01
      7.94       0.07       0.02
      7.97       0.11      -0.04
      7.81       0.06      -0.01
      8.01       0.15      -0.06
      8.16       0.02       0.09
      8.00      -0.01      -0.20
      7.76      -0.27      -0.02
      7.99       0.22       0.24
      7.72      -0.15       0.18
      7.76      -0.14      -0.09
      7.68      -0.30       0.04
      7.50      -0.09       0.04
      7.35      -0.31       0.21
      7.10      -0.52       0.20
      6.97      -0.48       0.08
      6.93      -0.67       0.15
      6.58      -0.94       0.20
      6.20      -0.80       0.17
      6.27      -1.02       0.24
      5.93      -1.13       0.36
      5.73      -1.21       0.22
      5.73      -1.27       0.17
      5.96      -0.98       0.23
      5.97      -1.01       0.20
      6.17      -1.08       0.42
      6.33      -1.04       0.40
      6.80      -0.70       0.15
      6.78      -0.67       0.21
      7.09      -0.59       0.17
      7.41      -0.28      -0.00
      7.47      -0.40       0.30
      7.47      -0.41       0.16
      7.66      -0.14       0.19
      8.01      -0.09       0.01
      8.02      -0.17      -0.03
      7.99      -0.05      -0.05
      7.97      -0.28      -0.04
      8.06      -0.09      -0.03
      8.15       0.09       0.08
      7.97       0.01      -0.03
      8.21       0.09       0.07
      8.18      -0.12      -0.13
      8.01      -0.00      -0.06
      8.09      -0.20       0.01
      8.10       0.01      -0.00
      7.84       0.00       0.05
      7.79      -0.06      -0.07
      8.18      -0.07       0.19
      8.04      -0.07      -0.06
      8.16      -0.22       0.12
      8.31       0.04       0.13
      8.15       0.02      -0.14
      8.17      -0.23      -0.10
      8.18       0.09      -0.06
      8.20      -0.08       0.07
      8.10      -0.11      -0.04
      7.88      -0.11       0.03
      7.86      -0.16       0.05
      8.09      -0.17       0.10
      7.90      -0.31      -0.04
      7.62      -0.16      -0.00
      7.55      -0.57      -0.16
      7.38      -0.28       0.27
      7.23      -0.36       0.13
      6.78      -0.62       0.31
      6.63      -0.56       0.13
      6.31      -0.86       0.28
      6.25      -1.13       0.36
      6.19      -1.08       0.46
      6.16      -0.97       0.12
      6.12      -1.25       0.21
      6.26      -1.03       0.26
      6.08      -1.17       0.23
      6.15      -1.10       0.29
      6.45      -1.27       0.41
      6.66      -0.82       0.15
      6.97      -0.62       0.24
      7.00      -0.56       0.07
      7.37      -0.60       0.26
      7.71      -0.35       0.14
      7.61      -0.36       0.08
      7.77      -0.16       0.32
      8.00      -0.05       0.07
      8.12      -0.21       0.19
      8.23      -0.08       0.00
      8.19       0.21       0.02
      8.08       0.02       0.09
      8.12       0.05      -0.00
      8.21       0.10      -0.04
      8.26      -0.26      -0.02
      8.25      -0.10      -0.16
      8.16       0.01      -0.24
      8.18       0.04      -0.22
      8.33       0.14       0.12
      7.97      -0.15       0.07
      8.09      -0.02      -0.02
      8.24      -0.04       0.25
      8.39      -0.02      -0.09
      8.46       0.02       0.05
      8.29       0.05       0.03
      8.32       0.26      -0.11
      8.28       0.02      -0.04
      8.32       0.10      -0.09
      8.22       0.11      -0.08
      8.33      -0.07       0.21
      8.20      -0.21      -0.17
      8.23       0.04      -0.07
      8.13      -0.29       0.14
      7.99       0.11       0.00
      7.88      -0.13       0.11
      7.70      -0.11       0.05
      7.34      -0.31       0.29
      7.23      -0.51      -0.03
      7.27      -0.54       0.07
      6.90      -0.69       0.20
      6.76      -0.74       0.53
      6.23      -1.01       0.40
      6.22      -1.15       0.50
      6.14      -1.14       0.22
      6.03      -1.02       0.20
      6.31      -1.03       0.49
      6.35      -1.12       0.18
      6.49      -0.87       0.13
      6.65      -1.08       0.08
      6.98      -0.71       0.36
      7.13      -0.54       0.25
      7.27      -0.55       0.09
      7.56      -0.40       0.12
      7.86      -0.45      -0.07
      8.01      -0.15       0.10
      7.96      -0.15       0.21
      8.26      -0.08       0.14
      8.14       0.06       0.19
      8.14      -0.06      -0.03
      8.19      -0.05      -0.09
      8.38      -0.29      -0.03
      8.48      -0.16       0.09
      8.45      -0.16      -0.11
      8.47      -0.06      -0.10
      8.35      -0.25       0.23
      8.51      -0.11      -0.20
      8.18      -0.19       0.15
      8.42      -0.04       0.13
      8.37       0.02       0.03
      8.25      -0.00      -0.12
      8.53      -0.41      -0.19
      8.40      -0.11      -0.28
      8.64       0.06       0.13
      8.48       0.18       0.04
      8.58      -0.24      -0.03
      8.64       0.24      -0.18
      8.48       0.22      -0.14
      8.42       0.00       0.22
      8.42      -0.02       0.11
      8.28       0.03       0.02
      8.21      -0.01       0.04
      8.23      -0.21      -0.02
      8.29      -0.12      -0.03
      7.94      -0.16      -0.06
      8.02      -0.32       0.20
      7.74      -0.18       0.21
      7.77      -0.70       0.20
      7.50      -0.40       0.11
      7.23      -0.78       0.24
      6.83      -0.90       0.23
      6.56      -1.05       0.21
      6.66      -1.06       0.10
      6.35      -1.07       0.18
      6.22      -1.22       0.22
      6.31      -1.28       0.37
      6.58      -1.12       0.18
      6.72      -1.11       0.31
      6.90      -0.70       0.22
      7.14      -0.93       0.28
      7.41      -0.54       0.22
      7.34      -0.61       0.24
      7.71      -0.58       0.12
      7.91      -0.41      -0.18
      8.09      -0.29      -0.17
      8.20       0.08       0.03
      8.45       0.10      -0.02
      8.37       0.05       0.04
      8.59      -0.05      -0.04
      8.41      -0.05       0.00
      8.35      -0.19      -0.11
      8.41      -0.29       0.07
      8.50       0.01       0.12
      8.61       0.02       0.02
      8.38      -0.17      -0.07
      8.53       0.02      -0.10
      8.58       0.15       0.22
      8.47       0.11       0.29
      8.47       0.01       0.14
      8.51      -0.15       0.06
      8.72       0.10       0.03
      8.60      -0.16       0.03
      8.60      -0.08       0.10
      8.44      -0.06       0.06
      8.78      -0.08       0.07
      8.68      -0.02       0.02
      8.57      -0.09       0.11
      8.72       0.04      -0.16
      8.61       0.01       0.08
      8.50      -0.13      -0.02
      8.48      -0.06      -0.03
      8.28      -0.13       0.03
      8.42      -0.20       0.02
      8.09      -0.25       0.29
      8.04      -0.20       0.13
      7.92      -0.21       0.12
      7.83      -0.43       0.11
      7.57      -0.62       0.12
      7.38      -0.69       0.09
      7.08      -0.80       0.13
      6.90      -1.00       0.26
      6.95      -1.10       0.47
      6.81      -1.02       0.35
      6.75      -1.03       0.11
      6.75      -0.92       0.39
      6.62      -0.92       0.36
      6.81      -0.99       0.23
      7.07      -0.94       0.18
      7.22      -0.69       0.43
      7.41      -0.58       0.05
      7.69      -0.57       0.08
      8.07      -0.27       0.27
      8.22      -0.26      -0.13
      8.32      -0.25      -0.08
      8.48      -0.19      -0.02
      8.55      -0.35      -0.00
      8.54      -0.05       0.26
      8.71      -0.11      -0.02
      8.65       0.06      -0.16
      8.66      -0.08      -0.18
      8.51      -0.19      -0.05
      8.86      -0.13      -0.05
      8.64       0.04      -0.11
      8.85       0.03      -0.07
      8.67      -0.13      -0.03
      8.56      -0.10      -0.02
      8.62       0.06      -0.01
      8.56      -0.08       0.02
      8.42      -0.07      -0.04
      8.75       0.35       0.31
      8.78      -0.20       0.10
      8.80      -0.26      -0.08
      8.73       0.04       0.04
      8.72       0.17       0.06
      8.56       0.07      -0.08
      8.77       0.10      -0.23
      8.86      -0.14      -0.17
      8.68      -0.19       0.16
      8.62      -0.31       0.03
      8.51      -0.19       0.20
      8.59      -0.06       0.03
      8.66      -0.19       0.19
      8.64      -0.26      -0.03
      8.15      -0.25       0.13
      8.19      -0.17       0.10
      8.14      -0.31      -0.08
      8.05      -0.44       0.19
      7.44      -0.92       0.20
      7.40      -0.84       0.31
      7.18      -0.82       0.10
      6.99      -0.68       0.24
      7.07      -1.16       0.28
      7.10      -0.98       0.40
      6.96      -1.03       0.30
      6.87      -0.88       0.31
      7.02      -1.03       0.39
      7.14      -0.88       0.30
      7.53      -0.94       0.07
      7.47      -0.50       0.06
      7.80      -0.39       0.06
      8.06      -0.33       0.24
      8.28      -0.19       0.10
      8.54      -0.42       0.07
      8.68      -0.23      -0.03
      8.74      -0.22       0.08
      8.51      -0.09       0.06
      8.79       0.02       0.11
      8.66       0.05       0.03
      8.69       0.17       0.15
      8.70      -0.12       0.05
      8.75      -0.00       0.13
      8.61      -0.16      -0.06
      8.72       0.11      -0.02
      8.76      -0.02      -0.13
      8.68       0.13       0.17
      8.62       0.00      -0.01
      8.65       0.06       0.05
      8.71       0.09      -0.06
      8.91      -0.01      -0.16
      8.85      -0.04      -0.05
      8.84      -0.06       0.03
      8.82       0.05      -0.20
      8.74       0.12      -0.02
      8.88      -0.00      -0.16
      8.87       0.07       0.07
      8.94       0.08      -0.05
      8.76      -0.02       0.02
      8.80      -0.06      -0.08
      8.64      -0.08      -0.09
      8.61      -0.12       0.07
      8.84       0.10      -0.02
      8.68      -0.29       0.16
      8.48      -0.28      -0.01
      8.45      -0.47       0.01
      8.35      -0.41       0.20
      8.03      -0.46       0.01
      7.85      -0.63       0.26
      7.43      -0.61       0.14
      7.22      -0.89       0.21
      7.37      -0.69       0.11
      7.12      -0.74       0.22
      7.15      -1.04       0.21
      7.13      -1.02       0.38
      7.27      -0.79       0.10
      7.25      -0.61       0.29
      7.84      -0.84       0.07
      7.72      -0.74       0.27
      8.03      -0.58      -0.07
      7.97      -0.60       0.15
      8.16      -0.13       0.23
      8.29      -0.29       0.20
      8.39      -0.22      -0.10
      8.68      -0.19      -0.17
      8.67      -0.09      -0.03
      8.74      -0.03       0.04
      8.92       0.00      -0.10
      8.78       0.21      -0.01
      8.95       0.14      -0.25
      8.77      -0.07       0.05
      8.69       0.00      -0.06
      8.86       0.20      -0.05
      8.87      -0.20       0.00
      8.81       0.22      -0.10
      9.04       0.07      -0.05
      8.78      -0.08       0.17
      8.72      -0.19      -0.13
      8.76      -0.18      -0.00
      9.00       0.19       0.15
      9.06      -0.19       0.13
      8.81       0.01       0.11
      9.12      -0.06       0.05
      9.03      -0.25      -0.18
      9.01       0.16      -0.01
      8.90      -0.13      -0.09
      9.04       0.10       0.11
      8.97       0.02       0.19
      9.00      -0.32       0.13
      8.99       0.09      -0.05
      8.84       0.24      -0.02
      8.80      -0.17       0.02
      8.70      -0.06       0.14
      8.76      -0.43       0.00
      8.50      -0.50       0.01
      8.51      -0.18       0.22
      8.14      -0.27       0.04
      8.09      -0.15       0.20
      8.10      -0.79       0.20
      7.86      -0.49       0.08
      7.51      -0.63       0.41
      7.83      -0.50      -0.02
      7.51      -0.88       0.09
      7.34      -0.85       0.20
      7.52      -0.73       0.26
      7.65      -0.41       0.22
      7.78      -0.58       0.19
      7.89      -0.61       0.24
      8.23      -0.57       0.24
      8.35      -0.36       0.12
      8.38      -0.07      -0.03
      8.60      -0.12       0.03
      8.82      -0.12      -0.03
      8.79      -0.13      -0.02
      8.81      -0.33      -0.24
      8.85      -0.22      -0.19
      8.66       0.02      -0.00
      9.10       0.11      -0.08
      8.99      -0.03       0.12
      9.11      -0.17       0.18
      8.74      -0.00       0.15
      8.74       0.17      -0.11
      8.91      -0.22       0.17
      9.03      -0.01       0.07
      9.01      -0.19      -0.20
      8.91       0.15      -0.08
      8.91      -0.09       0.14
      9.12       0.14      -0.01
      9.21       0.19      -0.20
      9.01       0.02       0.05
      9.09       0.09      -0.03
      8.88      -0.06      -0.00
      9.12      -0.09      -0.04
      9.26      -0.29       0.07
      8.99       0.05      -0.09
      9.09      -0.16      -0.08
      8.92      -0.07       0.13
      9.16      -0.07       0.16
      9.19      -0.11      -0.10
      9.23      -0.04       0.25
      8.93      -0.12      -0.02
      8.93      -0.17      -0.11
      8.77      -0.19       0.20
      8.83      -0.34       0.10
      8.51      -0.22       0.17
      8.54      -0.26       0.03
      8.35      -0.49       0.28
      8.31      -0.75       0.31
      8.21      -0.44       0.12
      8.20      -0.55       0.26
      7.64      -0.52       0.24
      7.83      -0.74       0.17
      7.74      -0.94       0.38
      7.91      -0.66       0.19
      7.92      -0.74       0.09
      7.89      -0.60       0.17
      8.08      -0.60       0.18
      8.23      -0.55       0.23
      8.59      -0.35       0.29
      8.51      -0.24       0.06
      8.94      -0.09      -0.05
      8.97      -0.41      -0.22
      9.02      -0.03      -0.17
      9.12       0.15      -0.07
      9.04      -0.14       0.06
      8.85       0.05       0.03
      8.93       0.04       0.11
      8.96      -0.02       0.15
      9.00      -0.07       0.17
      9.01      -0.09      -0.07
      9.07       0.03      -0.12
      9.08      -0.14       0.09
      9.03      -0.03      -0.12
      9.05      -0.09       0.18
      9.09      -0.10      -0.18
      9.23       0.03      -0.02
      9.13       0.14      -0.06
