# vtk DataFile Version 3.0
Low resolution, disturbed wind of XZ Slice at time = 90.75 seconds.
ASCII
DATASET STRUCTURED_POINTS
DIMENSIONS   164     1    17
ORIGIN     -88.00       0.00      11.00
SPACING      12.03      10.10      10.00
POINT_DATA            2788
VECTORS Velocity float
      5.28      -0.05       0.11
      5.16      -0.15      -0.42
      5.44      -0.07       0.08
      5.32       0.23       0.23
      5.14      -0.40      -0.12
      5.14       0.12       0.16
      5.36       0.29       0.21
      4.37      -0.70      -0.06
      4.00      -0.58      -0.06
      4.30      -0.33       0.17
      4.26      -0.45       0.39
      4.31      -0.79      -0.25
      4.39      -0.73       0.21
      4.36      -0.33       0.46
      4.11      -0.92       0.10
      4.09      -0.40       0.29
      4.45      -0.26       0.34
      4.32      -0.71       0.07
      4.07      -0.57      -0.18
      4.47      -0.38       0.22
      4.36      -0.29       0.35
      4.38      -0.75      -0.18
      4.37      -0.66       0.15
      4.49      -0.23       0.52
      4.28      -0.70       0.02
      4.17      -0.42       0.12
      4.63      -0.22       0.30
      4.46      -0.58       0.19
      4.26      -0.56      -0.28
      4.66      -0.43       0.22
      4.55      -0.18       0.33
      4.56      -0.70      -0.08
      4.72      -0.26       0.19
      5.05       0.09       0.34
      5.00      -0.34      -0.13
      4.92      -0.07      -0.12
      5.32       0.20       0.08
      5.26       0.01       0.21
      5.28      -0.22      -0.41
      5.45      -0.17       0.09
      5.35       0.20       0.27
      5.09      -0.46      -0.02
      5.10       0.18       0.21
      5.38       0.28       0.19
      5.27      -0.21      -0.14
      5.03      -0.04      -0.27
      5.38       0.17       0.06
      5.29       0.15       0.23
      5.31      -0.26      -0.35
      5.33      -0.18       0.05
      5.36       0.22       0.37
      5.09      -0.33      -0.07
      4.98       0.03       0.08
      5.35       0.17       0.23
      5.12      -0.28       0.05
      4.78      -0.22      -0.32
      5.16      -0.10       0.18
      4.95       0.05       0.28
      4.86      -0.51      -0.15
      5.22      -0.09       0.04
      5.37       0.27       0.33
      5.18      -0.21      -0.16
      5.03       0.03      -0.10
      5.41       0.24       0.10
      5.28      -0.03       0.12
      5.18      -0.16      -0.43
      5.44      -0.08       0.07
      5.33       0.22       0.23
      5.12      -0.41      -0.10
      5.12       0.14       0.18
      5.35       0.30       0.20
      5.26      -0.20      -0.21
      5.04      -0.01      -0.24
      5.34       0.23       0.01
      5.28       0.12       0.22
      5.31      -0.23      -0.41
      5.38      -0.17       0.04
      5.35       0.23       0.30
      5.10      -0.36      -0.07
      5.07       0.13       0.11
      5.42       0.27       0.17
      5.27      -0.18      -0.07
      5.01      -0.05      -0.35
      5.41       0.12       0.07
      5.28       0.22       0.19
      5.28      -0.25      -0.32
      5.26      -0.16      -0.00
      5.38       0.26       0.38
      5.15      -0.21      -0.14
      5.03       0.04      -0.04
      5.46       0.24       0.15
      5.28      -0.11       0.07
      5.09      -0.12      -0.42
      5.44      -0.01       0.08
      5.31       0.24       0.21
      5.18      -0.35      -0.17
      5.17       0.04       0.11
      5.36       0.29       0.26
      5.22      -0.21      -0.18
      5.03       0.01      -0.18
      5.36       0.24       0.03
      5.28       0.06       0.19
      5.30      -0.21      -0.44
      5.44      -0.17       0.06
      5.35       0.21       0.26
      5.08      -0.43      -0.05
      5.09       0.18       0.18
      5.38       0.29       0.17
      5.27      -0.19      -0.14
      5.02      -0.03      -0.30
      5.38       0.17       0.04
      5.28       0.18       0.20
      5.30      -0.24      -0.36
      5.32      -0.16       0.02
      5.37       0.24       0.35
      5.13      -0.27      -0.11
      5.04       0.08       0.02
      5.46       0.25       0.17
      5.27      -0.17       0.01
      5.00      -0.08      -0.41
      5.45       0.06       0.09
      5.29       0.25       0.19
      5.23      -0.30      -0.24
      5.21      -0.06       0.05
      5.37       0.27       0.32
      5.19      -0.21      -0.16
      5.03       0.02      -0.12
      5.40       0.24       0.08
      5.28      -0.01       0.14
      5.21      -0.17      -0.43
      5.44      -0.10       0.07
      5.33       0.22       0.24
      5.11      -0.42      -0.08
      5.11       0.17       0.19
      5.35       0.30       0.18
      5.26      -0.20      -0.20
      5.03      -0.01      -0.26
      5.35       0.22       0.01
      5.28       0.14       0.21
      5.31      -0.24      -0.40
      5.37      -0.17       0.04
      5.36       0.23       0.31
      5.11      -0.34      -0.08
      5.06       0.12       0.09
      5.43       0.27       0.17
      5.27      -0.18      -0.06
      5.01      -0.06      -0.36
      5.42       0.11       0.08
      5.28       0.24       0.19
      5.28      -0.26      -0.31
      5.25      -0.16      -0.01
      5.38       0.26       0.38
      5.16      -0.21      -0.14
      5.03       0.04      -0.06
      5.45       0.24       0.13
      5.28      -0.09       0.08
      5.11      -0.13      -0.42
      5.44      -0.03       0.08
      5.31       0.23       0.22
      5.16      -0.37      -0.15
      5.15       0.06       0.13
      5.36       0.29       0.24
      5.23      -0.20      -0.19
      5.04       0.01      -0.20
      5.99      -0.01      -0.19
      5.74      -0.02       0.25
      6.14      -0.03       0.09
      6.13      -0.03      -0.13
      5.68      -0.28      -0.11
      5.98       0.12       0.28
      6.01       0.07       0.03
      4.91      -0.69      -0.23
      4.64      -0.52       0.32
      5.04      -0.58       0.16
      4.78      -0.70       0.14
      4.54      -0.65       0.37
      4.90      -0.63       0.37
      4.88      -0.69       0.00
      4.64      -0.96      -0.02
      4.83      -0.59       0.48
      4.89      -0.47       0.26
      4.84      -0.68      -0.15
      4.65      -0.60       0.42
      5.07      -0.63       0.15
      5.02      -0.61       0.18
      4.51      -0.69       0.25
      4.91      -0.46       0.30
      4.96      -0.57       0.05
      4.94      -0.78      -0.14
      5.00      -0.58       0.37
      5.10      -0.30       0.23
      4.99      -0.56      -0.08
      4.74      -0.61       0.45
      5.17      -0.59       0.19
      5.20      -0.55       0.09
      4.75      -0.72       0.10
      5.29      -0.26       0.34
      5.53      -0.23       0.08
      5.65      -0.34      -0.29
      5.74      -0.01       0.20
      6.14       0.08       0.03
      5.94      -0.06      -0.07
      5.75      -0.01       0.24
      6.14      -0.02       0.19
      6.09      -0.07      -0.20
      5.75      -0.37      -0.15
      5.99       0.07       0.34
      6.03       0.10       0.09
      5.97      -0.09      -0.35
      5.83       0.08       0.20
      6.23       0.02      -0.01
      6.07      -0.03      -0.00
      5.67      -0.06       0.14
      6.03       0.06       0.18
      6.01      -0.05      -0.12
      5.83      -0.32      -0.22
      5.88      -0.10       0.30
      5.85       0.08       0.15
      5.66      -0.23      -0.20
      5.29      -0.35       0.42
      5.61      -0.40       0.11
      5.55      -0.38       0.15
      4.89      -0.56       0.16
      5.97       0.16       0.16
      6.02       0.04      -0.07
      5.99      -0.16      -0.34
      5.98       0.06       0.17
      6.18       0.20       0.02
      5.99      -0.01      -0.17
      5.75      -0.01       0.24
      6.14      -0.02       0.11
      6.12      -0.03      -0.15
      5.69      -0.30      -0.12
      5.98       0.12       0.30
      6.01       0.08       0.05
      5.96      -0.10      -0.40
      5.87       0.18       0.12
      6.26       0.09      -0.04
      6.01      -0.02      -0.05
      5.72       0.01       0.16
      6.09       0.05       0.17
      6.07      -0.02      -0.19
      5.84      -0.29      -0.23
      6.01       0.05       0.27
      6.06       0.19       0.07
      5.99      -0.04      -0.33
      5.77       0.01       0.24
      6.19      -0.02      -0.03
      6.14      -0.00      -0.00
      5.60      -0.10       0.06
      5.99       0.16       0.12
      6.03       0.03      -0.12
      6.00      -0.19      -0.32
      6.03       0.01       0.19
      6.14       0.25       0.05
      6.00      -0.00      -0.23
      5.73      -0.05       0.28
      6.15      -0.04       0.05
      6.15      -0.02      -0.08
      5.65      -0.23      -0.06
      5.98       0.13       0.23
      6.02       0.06      -0.00
      5.97      -0.13      -0.37
      5.92       0.13       0.14
      6.24       0.14      -0.02
      5.98      -0.02      -0.09
      5.76       0.03       0.20
      6.14       0.00       0.18
      6.09      -0.05      -0.22
      5.76      -0.34      -0.19
      5.99       0.08       0.31
      6.03       0.13       0.07
      5.97      -0.07      -0.37
      5.81       0.08       0.19
      6.22       0.03      -0.04
      6.08      -0.01      -0.02
      5.65      -0.05       0.10
      6.03       0.11       0.14
      6.05       0.01      -0.15
      5.94      -0.23      -0.28
      6.04       0.01       0.22
      6.10       0.25       0.07
      6.00      -0.01      -0.29
      5.72      -0.09       0.31
      6.15      -0.06      -0.01
      6.18      -0.00      -0.02
      5.60      -0.17      -0.01
      5.97       0.15       0.17
      6.02       0.05      -0.06
      5.99      -0.15      -0.35
      5.97       0.08       0.16
      6.20       0.19       0.01
      5.99      -0.01      -0.15
      5.75      -0.00       0.24
      6.14      -0.02       0.12
      6.11      -0.04      -0.17
      5.71      -0.32      -0.14
      5.98       0.11       0.31
      6.01       0.08       0.06
      5.96      -0.09      -0.40
      5.85       0.16       0.13
      6.26       0.08      -0.04
      6.02      -0.01      -0.04
      5.71      -0.00       0.15
      6.08       0.06       0.16
      6.07      -0.02      -0.18
      5.86      -0.28      -0.24
      6.02       0.04       0.26
      6.07       0.20       0.07
      5.99      -0.03      -0.32
      5.76      -0.01       0.26
      6.18      -0.03      -0.03
      6.16      -0.00       0.00
      5.59      -0.11       0.04
      5.98       0.17       0.12
      6.03       0.03      -0.11
      6.00      -0.18      -0.32
      6.02       0.02       0.18
      6.15       0.24       0.04
      6.00      -0.01      -0.22
      5.74      -0.04       0.27
      6.15      -0.04       0.06
      6.14      -0.02      -0.10
      5.66      -0.25      -0.08
      5.98       0.13       0.25
      6.01       0.07       0.01
      5.97      -0.12      -0.38
      5.90       0.15       0.13
      6.34       0.16       0.07
      6.57      -0.12      -0.07
      6.61       0.10       0.15
      6.33       0.02       0.04
      6.61      -0.04      -0.17
      6.56      -0.17       0.14
      6.37       0.09      -0.31
      4.94      -0.80       0.13
      5.06      -0.96       0.34
      5.16      -0.63       0.34
      4.93      -0.57       0.37
      5.16      -0.78       0.08
      5.16      -0.76       0.43
      4.99      -0.68       0.13
      5.06      -0.92       0.10
      5.17      -1.00       0.36
      5.08      -0.62       0.06
      4.90      -0.74       0.20
      5.22      -0.93       0.27
      5.31      -0.54       0.31
      4.95      -0.71       0.32
      5.34      -0.64       0.10
      5.24      -0.67       0.37
      5.13      -0.56      -0.13
      4.92      -0.93       0.21
      5.29      -0.90       0.32
      5.33      -0.48       0.20
      5.12      -0.54       0.24
      5.39      -0.84       0.17
      5.45      -0.50       0.31
      5.10      -0.68       0.26
      5.45      -0.65       0.05
      5.53      -0.67       0.31
      5.63      -0.33      -0.19
      5.64      -0.48       0.07
      6.19      -0.38       0.19
      6.42       0.05       0.13
      6.26       0.13       0.16
      6.51      -0.10      -0.09
      6.54      -0.01       0.23
      6.35       0.04       0.04
      6.54      -0.15      -0.16
      6.55      -0.27       0.16
      6.37       0.07      -0.22
      6.19      -0.09      -0.02
      6.52      -0.20       0.10
      6.61       0.15       0.12
      6.28       0.06       0.15
      6.59       0.00      -0.10
      6.49      -0.03       0.21
      6.29       0.03      -0.18
      6.09      -0.35       0.02
      6.22      -0.45       0.22
      6.06      -0.12       0.05
      5.69      -0.31       0.15
      5.82      -0.69       0.19
      5.76      -0.34       0.27
      5.21      -0.68       0.30
      5.55      -0.57       0.10
      6.37      -0.11       0.18
      6.39       0.13      -0.36
      6.16      -0.20      -0.01
      6.52      -0.19       0.11
      6.58       0.19       0.04
      6.34       0.17       0.08
      6.57      -0.10      -0.08
      6.60       0.09       0.16
      6.34       0.03       0.03
      6.60      -0.06      -0.17
      6.57      -0.19       0.14
      6.37       0.09      -0.30
      6.17      -0.11      -0.06
      6.50      -0.15       0.10
      6.60       0.17       0.11
      6.34       0.19       0.13
      6.57       0.01      -0.14
      6.55       0.03       0.19
      6.39       0.11      -0.12
      6.41      -0.16      -0.11
      6.56      -0.23       0.13
      6.47       0.14      -0.14
      6.26       0.02      -0.01
      6.56      -0.20       0.04
      6.64       0.19       0.09
      6.25      -0.02       0.11
      6.64       0.08      -0.11
      6.53       0.04       0.15
      6.40       0.14      -0.37
      6.16      -0.24       0.01
      6.53      -0.22       0.12
      6.57       0.20       0.01
      6.33       0.14       0.05
      6.58      -0.17      -0.04
      6.63       0.14       0.12
      6.29      -0.02       0.06
      6.62      -0.00      -0.15
      6.55      -0.11       0.14
      6.38       0.10      -0.33
      6.17      -0.15      -0.04
      6.51      -0.17       0.11
      6.59       0.18       0.08
      6.35       0.22       0.12
      6.55      -0.03      -0.14
      6.57       0.02       0.21
      6.39       0.09      -0.01
      6.53      -0.12      -0.17
      6.57      -0.23       0.13
      6.41       0.11      -0.22
      6.22      -0.04      -0.04
      6.54      -0.18       0.07
      6.62       0.19       0.10
      6.29       0.08       0.12
      6.61       0.05      -0.12
      6.54       0.03       0.17
      6.40       0.13      -0.26
      6.26      -0.21      -0.04
      6.54      -0.23       0.12
      6.54       0.19      -0.04
      6.31       0.09       0.02
      6.59      -0.23       0.01
      6.66       0.19       0.09
      6.24      -0.07       0.09
      6.65       0.05      -0.12
      6.54      -0.03       0.14
      6.39       0.12      -0.35
      6.16      -0.19      -0.02
      6.52      -0.19       0.11
      6.58       0.19       0.05
      6.34       0.18       0.09
      6.57      -0.09      -0.09
      6.59       0.07       0.17
      6.35       0.05       0.03
      6.60      -0.07      -0.18
      6.57      -0.21       0.14
      6.36       0.08      -0.29
      6.17      -0.10      -0.06
      6.51      -0.15       0.10
      6.60       0.18       0.10
      6.33       0.17       0.13
      6.58       0.02      -0.14
      6.55       0.03       0.19
      6.39       0.11      -0.15
      6.38      -0.17      -0.10
      6.55      -0.23       0.13
      6.48       0.15      -0.12
      6.27       0.03      -0.01
      6.57      -0.21       0.04
      6.65       0.20       0.08
      6.24      -0.04       0.10
      6.65       0.08      -0.10
      6.53       0.04       0.15
      6.40       0.14      -0.38
      6.16      -0.23       0.01
      6.53      -0.21       0.12
      6.57       0.20       0.02
      6.33       0.15       0.06
      6.58      -0.15      -0.05
      6.62       0.12       0.13
      6.30      -0.00       0.05
      6.62      -0.02      -0.15
      6.56      -0.13       0.14
      6.37       0.10      -0.32
      6.17      -0.14      -0.05
      6.51      -0.16       0.11
      6.93      -0.00       0.11
      6.93       0.03       0.06
      6.40      -0.04      -0.13
      6.93       0.06       0.15
      7.03      -0.16       0.11
      6.69      -0.10      -0.33
      6.77       0.17       0.22
      6.96      -0.16       0.09
      5.48      -0.69      -0.02
      5.02      -0.85       0.24
      5.31      -0.94       0.48
      5.32      -0.98       0.38
      4.85      -0.96       0.05
      5.23      -0.67       0.50
      5.44      -1.04       0.29
      5.16      -0.91      -0.07
      5.22      -0.78       0.27
      5.40      -0.93       0.31
      5.49      -0.66       0.14
      4.98      -0.83       0.20
      5.50      -0.97       0.39
      5.46      -0.90       0.43
      5.12      -0.96       0.00
      5.29      -0.56       0.64
      5.51      -0.89       0.21
      5.39      -0.72      -0.03
      5.36      -0.77       0.07
      5.52      -0.77       0.28
      5.54      -0.67       0.26
      5.02      -0.79       0.13
      5.59      -0.82       0.36
      5.58      -0.92       0.38
      5.29      -0.91      -0.07
      5.64      -0.46       0.48
      6.12      -0.64       0.20
      6.48      -0.18      -0.16
      6.37      -0.18       0.02
      6.71      -0.18       0.25
      6.77      -0.18       0.14
      6.27      -0.16      -0.13
      6.74       0.10       0.22
      6.95      -0.28       0.10
      6.62      -0.15      -0.32
      6.71       0.06       0.14
      6.90      -0.19       0.12
      7.03       0.15      -0.16
      6.52      -0.03       0.00
      6.92      -0.16       0.22
      6.88      -0.15       0.19
      6.42      -0.22      -0.17
      6.56       0.06       0.41
      6.61      -0.39       0.10
      6.23      -0.34      -0.16
      6.05      -0.44       0.05
      5.98      -0.60       0.22
      5.80      -0.54       0.21
      5.10      -0.80       0.19
      5.60      -1.01       0.37
      5.45      -0.98       0.46
      6.44      -0.27      -0.23
      6.76       0.23       0.36
      6.96      -0.11       0.01
      6.95       0.13      -0.27
      6.75       0.04      -0.11
      6.93      -0.01       0.13
      6.93       0.01       0.06
      6.40      -0.04      -0.14
      6.91       0.09       0.16
      7.03      -0.17       0.10
      6.69      -0.10      -0.34
      6.77       0.16       0.20
      6.96      -0.17       0.10
      7.14       0.23      -0.28
      6.64       0.05      -0.02
      6.94      -0.05       0.21
      6.93      -0.09       0.13
      6.47      -0.08      -0.21
      6.82       0.22       0.26
      7.02      -0.16       0.03
      6.76      -0.02      -0.32
      6.80       0.08      -0.01
      6.95      -0.06       0.05
      7.01       0.18      -0.09
      6.49       0.01      -0.05
      7.02      -0.15       0.14
      6.96      -0.08       0.19
      6.64      -0.14      -0.24
      6.76       0.25       0.42
      6.96      -0.09      -0.03
      6.86       0.08      -0.27
      6.79       0.03      -0.15
      6.94       0.01       0.06
      6.94       0.08       0.04
      6.41      -0.03      -0.11
      6.97      -0.02       0.14
      7.01      -0.14       0.14
      6.68      -0.12      -0.31
      6.77       0.19       0.27
      6.96      -0.14       0.06
      7.06       0.19      -0.28
      6.69       0.05      -0.05
      6.92      -0.02       0.20
      6.92      -0.08       0.10
      6.40      -0.05      -0.19
      6.85       0.21       0.19
      7.04      -0.19       0.05
      6.72      -0.06      -0.34
      6.78       0.12       0.09
      6.95      -0.11       0.08
      7.07       0.20      -0.17
      6.55       0.03      -0.04
      6.99      -0.11       0.17
      6.95      -0.08       0.16
      6.57      -0.11      -0.23
      6.78       0.24       0.35
      6.98      -0.11      -0.01
      6.80       0.04      -0.28
      6.82       0.04      -0.13
      6.94       0.01       0.02
      6.94       0.15       0.01
      6.42      -0.01      -0.07
      7.02      -0.13       0.12
      6.99      -0.10       0.18
      6.67      -0.13      -0.28
      6.76       0.22       0.34
      6.96      -0.12       0.02
      6.97       0.14      -0.27
      6.74       0.04      -0.10
      6.93      -0.01       0.14
      6.93      -0.01       0.07
      6.40      -0.04      -0.15
      6.90       0.12       0.16
      7.04      -0.18       0.09
      6.69      -0.09      -0.35
      6.77       0.15       0.18
      6.96      -0.17       0.10
      7.12       0.22      -0.25
      6.62       0.05      -0.02
      6.95      -0.06       0.21
      6.93      -0.09       0.13
      6.49      -0.09      -0.21
      6.81       0.23       0.28
      7.01      -0.15       0.02
      6.77      -0.01      -0.31
      6.80       0.07      -0.04
      6.95      -0.05       0.05
      7.00       0.17      -0.07
      6.47       0.00      -0.05
      7.03      -0.16       0.13
      6.97      -0.07       0.20
      6.66      -0.15      -0.25
      6.75       0.25       0.42
      6.96      -0.09      -0.02
      6.88       0.09      -0.27
      6.78       0.03      -0.14
      6.94       0.00       0.08
      6.93       0.06       0.05
      6.41      -0.03      -0.11
      6.95       0.01       0.14
      7.02      -0.15       0.13
      6.68      -0.11      -0.32
      6.77       0.18       0.25
      6.96      -0.15       0.07
      7.08       0.20      -0.28
      6.93       0.02      -0.13
      7.27      -0.12       0.06
      7.07       0.10      -0.07
      6.93       0.03      -0.14
      7.37       0.18       0.06
      7.19      -0.01      -0.10
      7.01      -0.14       0.01
      7.26       0.10       0.10
      5.44      -1.15       0.24
      5.38      -1.15       0.53
      5.06      -0.97       0.22
      5.47      -1.07       0.33
      5.32      -0.81       0.21
      5.11      -1.07       0.14
      5.57      -0.73       0.39
      5.43      -0.97       0.25
      5.35      -1.13       0.35
      5.38      -0.92       0.23
      5.55      -1.10       0.30
      5.40      -1.02       0.31
      5.23      -0.84       0.18
      5.60      -0.92       0.33
      5.51      -0.83       0.17
      5.20      -1.12       0.17
      5.58      -0.63       0.48
      5.61      -0.82       0.33
      5.57      -1.09       0.38
      5.34      -0.88       0.10
      5.69      -1.01       0.32
      5.48      -0.85       0.17
      5.36      -0.81       0.12
      5.73      -0.78       0.32
      5.47      -0.95       0.17
      5.44      -1.05       0.23
      6.03      -0.56       0.35
      6.36      -0.62       0.15
      6.59      -0.54       0.33
      6.45      -0.26       0.01
      6.91      -0.34       0.13
      6.76      -0.03       0.01
      6.64      -0.22      -0.10
      7.16       0.08       0.12
      6.97      -0.18      -0.03
      6.89      -0.27       0.10
      7.05      -0.06       0.06
      7.15      -0.25       0.03
      7.02      -0.22       0.17
      6.76      -0.06      -0.03
      7.13      -0.16       0.11
      6.92      -0.05      -0.02
      6.47      -0.43      -0.02
      6.66      -0.14       0.31
      6.37      -0.50       0.20
      6.07      -0.87       0.30
      5.67      -0.81       0.10
      5.75      -1.07       0.33
      5.36      -1.06       0.21
      5.12      -0.98       0.19
      5.39      -1.06       0.38
      6.93      -0.11      -0.06
      6.91      -0.20      -0.06
      7.24       0.22       0.18
      7.25      -0.00       0.02
      7.20      -0.17       0.17
      6.92       0.02      -0.12
      7.27      -0.12       0.06
      7.07       0.12      -0.07
      6.93       0.02      -0.15
      7.38       0.20       0.06
      7.18      -0.01      -0.10
      7.03      -0.13       0.02
      7.27       0.09       0.08
      7.26      -0.15      -0.05
      7.18      -0.13       0.22
      6.87       0.04      -0.08
      7.25      -0.07       0.05
      7.11       0.17      -0.07
      6.90      -0.09      -0.14
      7.33       0.26       0.12
      7.21       0.02      -0.02
      7.13      -0.16       0.07
      7.10       0.04      -0.07
      7.29      -0.14       0.03
      7.11      -0.07       0.01
      6.94       0.10      -0.10
      7.29       0.01       0.07
      7.21       0.09      -0.10
      6.87      -0.22      -0.09
      7.22       0.27       0.22
      7.25       0.06       0.06
      7.21      -0.18       0.13
      6.95       0.01      -0.15
      7.29      -0.13       0.06
      7.08       0.05      -0.08
      6.94       0.06      -0.13
      7.35       0.14       0.06
      7.20       0.02      -0.10
      6.98      -0.16      -0.01
      7.25       0.14       0.13
      7.26      -0.08      -0.02
      7.19      -0.15       0.21
      6.87       0.03      -0.08
      7.24      -0.10       0.05
      7.07       0.21      -0.06
      6.91      -0.03      -0.16
      7.38       0.25       0.07
      7.19      -0.01      -0.07
      7.09      -0.14       0.05
      7.18       0.06       0.00
      7.27      -0.14      -0.01
      7.14      -0.10       0.10
      6.91       0.07      -0.09
      7.27      -0.02       0.06
      7.17       0.13      -0.09
      6.88      -0.16      -0.11
      7.26       0.27       0.18
      7.24       0.06       0.04
      7.19      -0.18       0.10
      7.00       0.01      -0.16
      7.30      -0.14       0.07
      7.08      -0.02      -0.08
      6.96       0.10      -0.11
      7.32       0.07       0.07
      7.21       0.05      -0.10
      6.92      -0.19      -0.05
      7.24       0.20       0.17
      7.25      -0.02       0.01
      7.20      -0.17       0.18
      6.91       0.02      -0.11
      7.26      -0.11       0.05
      7.07       0.14      -0.07
      6.92       0.01      -0.15
      7.39       0.21       0.06
      7.18      -0.02      -0.10
      7.04      -0.13       0.03
      7.26       0.08       0.07
      7.26      -0.14      -0.04
      7.17      -0.13       0.19
      6.88       0.05      -0.08
      7.26      -0.06       0.05
      7.12       0.16      -0.08
      6.89      -0.10      -0.13
      7.32       0.26       0.14
      7.22       0.03      -0.01
      7.14      -0.16       0.08
      7.08       0.03      -0.09
      7.29      -0.14       0.04
      7.10      -0.06      -0.01
      6.95       0.10      -0.10
      7.30       0.02       0.07
      7.22       0.08      -0.10
      6.87      -0.22      -0.08
      7.22       0.26       0.21
      7.25       0.05       0.05
      7.21      -0.18       0.14
      6.94       0.01      -0.14
      7.28      -0.13       0.06
      7.07       0.07      -0.08
      6.94       0.05      -0.13
      7.36       0.15       0.06
      7.20       0.01      -0.10
      6.99      -0.15      -0.00
      7.26       0.13       0.12
      7.26      -0.10      -0.03
      7.46      -0.10       0.01
      7.51      -0.03      -0.18
      7.43       0.37      -0.19
      7.42      -0.27       0.21
      7.18      -0.14       0.04
      7.53       0.14      -0.10
      7.46      -0.03       0.28
      7.12      -0.13      -0.15
      5.59      -0.89       0.28
      5.53      -0.84       0.17
      5.41      -1.31       0.44
      5.49      -1.24       0.20
      5.54      -0.86       0.17
      5.50      -1.31       0.52
      5.10      -1.23       0.37
      5.60      -0.94       0.29
      5.45      -1.06       0.52
      5.43      -1.12       0.19
      5.67      -0.91       0.14
      5.55      -0.58       0.09
      5.53      -1.34       0.51
      5.51      -1.20       0.22
      5.65      -0.82       0.16
      5.65      -1.24       0.56
      5.07      -1.22       0.28
      5.72      -0.85       0.38
      5.51      -0.96       0.39
      5.70      -1.04       0.24
      5.76      -0.94       0.06
      5.64      -0.51       0.06
      5.64      -1.29       0.51
      5.46      -1.15       0.27
      5.56      -0.94       0.19
      5.61      -1.17       0.57
      5.43      -1.10       0.16
      6.27      -0.58       0.23
      6.50      -0.40       0.11
      6.68      -0.63       0.22
      6.85      -0.52      -0.01
      6.89      -0.13      -0.04
      6.91      -0.57       0.29
      6.66      -0.43       0.18
      7.13      -0.15       0.02
      7.07      -0.24       0.33
      6.93      -0.31      -0.08
      7.31      -0.02      -0.03
      7.21       0.17      -0.11
      7.12      -0.47       0.25
      7.13      -0.38      -0.02
      7.10      -0.08      -0.04
      6.85      -0.65       0.37
      6.06      -0.77       0.19
      6.35      -0.60       0.26
      5.88      -0.88       0.40
      5.77      -1.06       0.20
      5.66      -1.04       0.07
      5.33      -0.66       0.08
      5.24      -1.61       0.58
      5.08      -1.48       0.30
      7.18      -0.01      -0.07
      7.49      -0.17       0.28
      6.97      -0.19      -0.06
      7.55       0.17       0.05
      7.40       0.13       0.01
      7.45      -0.11       0.03
      7.50      -0.05      -0.17
      7.44       0.34      -0.18
      7.42      -0.26       0.21
      7.17      -0.14       0.05
      7.53       0.14      -0.09
      7.46      -0.02       0.28
      7.14      -0.13      -0.16
      7.57       0.21      -0.03
      7.49       0.28      -0.14
      7.37      -0.22       0.14
      7.42      -0.17      -0.10
      7.47       0.21      -0.14
      7.45      -0.23       0.22
      7.02      -0.16       0.05
      7.53       0.14       0.00