# vtk DataFile Version 3.0
Low resolution, disturbed wind of XZ Slice at time = 99 seconds.
ASCII
DATASET STRUCTURED_POINTS
DIMENSIONS   164     1    17
ORIGIN     -88.00       0.00      11.00
SPACING      12.03      10.10      10.00
POINT_DATA            2788
VECTORS Velocity float
      5.02      -0.04      -0.31
      5.39       0.16       0.05
      5.28       0.19       0.20
      5.29      -0.25      -0.35
      5.30      -0.16       0.01
      5.37       0.25       0.36
      5.13      -0.26      -0.12
      4.15      -0.43       0.15
      4.43      -0.34       0.34
      4.24      -0.75       0.19
      3.99      -0.66      -0.24
      4.44      -0.52       0.26
      4.30      -0.31       0.36
      4.24      -0.86      -0.06
      4.22      -0.58       0.23
      4.41      -0.26       0.46
      4.24      -0.74      -0.01
      4.09      -0.51       0.02
      4.46      -0.28       0.23
      4.35      -0.51       0.31
      4.31      -0.69      -0.28
      4.54      -0.62       0.22
      4.44      -0.28       0.39
      4.21      -0.92       0.09
      4.23      -0.29       0.35
      4.49      -0.17       0.32
      4.41      -0.67      -0.05
      4.20      -0.47      -0.13
      4.54      -0.24       0.16
      4.48      -0.30       0.34
      4.52      -0.67      -0.26
      4.58      -0.59       0.16
      4.60      -0.19       0.44
      4.37      -0.73       0.04
      4.35      -0.28       0.19
      4.89      -0.05       0.27
      4.90      -0.40       0.03
      4.76      -0.22      -0.32
      5.27      -0.00       0.12
      5.20       0.18       0.22
      5.24      -0.30      -0.27
      5.22      -0.17       0.02
      5.38       0.25       0.38
      5.17      -0.22      -0.13
      5.03       0.02      -0.05
      5.44       0.23       0.14
      5.29      -0.09       0.11
      5.14      -0.16      -0.40
      5.45      -0.06       0.10
      5.33       0.22       0.24
      5.16      -0.40      -0.11
      5.15       0.07       0.17
      5.36       0.28       0.25
      5.24      -0.22      -0.17
      5.03      -0.02      -0.19
      5.32       0.21       0.04
      5.23       0.06       0.26
      5.23      -0.29      -0.39
      5.28      -0.27       0.11
      5.16       0.10       0.35
      4.85      -0.55       0.02
      4.77      -0.03       0.23
      5.05       0.07       0.27
      4.87      -0.42      -0.00
      5.02      -0.04      -0.33
      5.40       0.15       0.05
      5.28       0.20       0.20
      5.29      -0.25      -0.34
      5.29      -0.16       0.01
      5.37       0.25       0.37
      5.14      -0.24      -0.12
      5.03       0.06      -0.01
      5.48       0.24       0.17
      5.28      -0.15       0.04
      5.04      -0.10      -0.41
      5.44       0.02       0.09
      5.30       0.25       0.20
      5.21      -0.33      -0.21
      5.19      -0.01       0.08
      5.37       0.28       0.29
      5.21      -0.21      -0.17
      5.03       0.02      -0.15
      5.38       0.24       0.06
      5.28       0.02       0.16
      5.25      -0.19      -0.43
      5.44      -0.14       0.07
      5.34       0.21       0.25
      5.08      -0.45      -0.04
      5.10       0.20       0.21
      5.36       0.30       0.17
      5.26      -0.20      -0.17
      5.03      -0.02      -0.28
      5.37       0.20       0.03
      5.28       0.16       0.21
      5.30      -0.24      -0.38
      5.34      -0.17       0.03
      5.36       0.24       0.33
      5.12      -0.31      -0.10
      5.05       0.10       0.06
      5.45       0.26       0.17
      5.27      -0.18      -0.03
      5.00      -0.07      -0.38
      5.44       0.09       0.09
      5.28       0.26       0.18
      5.26      -0.27      -0.28
      5.23      -0.12       0.02
      5.37       0.27       0.35
      5.17      -0.21      -0.15
      5.03       0.03      -0.09
      5.43       0.24       0.11
      5.28      -0.05       0.11
      5.16      -0.15      -0.42
      5.44      -0.07       0.08
      5.32       0.23       0.23
      5.14      -0.39      -0.12
      5.14       0.11       0.16
      5.36       0.29       0.21
      5.25      -0.20      -0.20
      5.04      -0.00      -0.23
      5.33       0.24      -0.00
      5.28       0.11       0.22
      5.32      -0.23      -0.42
      5.40      -0.17       0.05
      5.35       0.22       0.29
      5.10      -0.38      -0.07
      5.07       0.14       0.13
      5.41       0.27       0.17
      5.27      -0.19      -0.09
      5.01      -0.05      -0.34
      5.41       0.14       0.06
      5.28       0.21       0.19
      5.28      -0.25      -0.33
      5.27      -0.16       0.00
      5.37       0.25       0.37
      5.14      -0.22      -0.13
      5.03       0.05      -0.03
      5.47       0.24       0.16
      5.28      -0.13       0.05
      5.07      -0.11      -0.41
      5.44       0.01       0.09
      5.30       0.24       0.21
      5.19      -0.34      -0.19
      5.18       0.01       0.10
      5.36       0.28       0.27
      5.21      -0.21      -0.18
      5.03       0.01      -0.17
      5.37       0.24       0.05
      5.28       0.04       0.18
      5.28      -0.20      -0.44
      5.44      -0.15       0.06
      5.34       0.21       0.25
      5.08      -0.45      -0.04
      5.09       0.19       0.19
      5.37       0.29       0.17
      5.27      -0.20      -0.16
      5.03      -0.03      -0.29
      5.37       0.18       0.03
      5.28       0.17       0.20
      5.30      -0.24      -0.37
      5.33      -0.17       0.02
      5.36       0.24       0.34
      5.12      -0.29      -0.10
      5.04       0.09       0.04
      5.46       0.25       0.17
      5.80       0.07       0.20
      6.21       0.02      -0.03
      6.10      -0.01      -0.02
      5.64      -0.06       0.09
      6.02       0.12       0.14
      6.04       0.01      -0.14
      5.95      -0.22      -0.29
      4.98      -0.58       0.38
      4.86      -0.42       0.27
      4.77      -0.69      -0.08
      4.50      -0.76       0.51
      4.95      -0.73       0.20
      4.98      -0.67       0.16
      4.43      -0.84       0.17
      4.81      -0.50       0.38
      4.87      -0.59       0.15
      4.84      -0.79      -0.17
      4.82      -0.54       0.34
      5.08      -0.45       0.19
      4.86      -0.63       0.05
      4.65      -0.61       0.41
      5.05      -0.62       0.32
      5.03      -0.64      -0.01
      4.65      -0.92       0.03
      4.92      -0.48       0.50
      4.96      -0.49       0.24
      4.93      -0.66      -0.22
      4.83      -0.42       0.31
      5.25      -0.48       0.13
      5.05      -0.56       0.12
      4.72      -0.55       0.30
      5.11      -0.45       0.31
      5.12      -0.53      -0.02
      4.95      -0.78      -0.10
      5.12      -0.46       0.40
      5.30      -0.23       0.20
      5.45      -0.35      -0.22
      5.39      -0.25       0.34
      5.94      -0.19       0.03
      6.05      -0.09       0.05
      5.51      -0.17       0.07
      5.95       0.13       0.15
      6.02       0.01      -0.07
      5.99      -0.19      -0.31
      6.01       0.02       0.20
      6.16       0.21       0.06
      6.00      -0.03      -0.18
      5.75      -0.05       0.29
      6.15      -0.05       0.10
      6.14      -0.05      -0.09
      5.67      -0.29      -0.07
      5.98       0.11       0.29
      6.01       0.05       0.04
      5.96      -0.14      -0.36
      5.86       0.12       0.16
      6.19       0.05       0.01
      5.85      -0.11      -0.01
      5.56      -0.11       0.25
      5.84      -0.16       0.26
      5.71      -0.27      -0.10
      5.33      -0.60      -0.09
      5.44      -0.27       0.42
      5.42      -0.21       0.21
      5.30      -0.45      -0.20
      5.79       0.05       0.22
      6.21       0.01      -0.03
      6.11      -0.01      -0.01
      5.63      -0.07       0.08
      6.01       0.13       0.13
      6.04       0.02      -0.13
      5.97      -0.21      -0.30
      6.04      -0.00       0.20
      6.12       0.27       0.07
      6.00      -0.00      -0.26
      5.73      -0.07       0.30
      6.15      -0.05       0.02
      6.16      -0.01      -0.05
      5.62      -0.20      -0.04
      5.98       0.14       0.20
      6.02       0.06      -0.03
      5.98      -0.14      -0.36
      5.94       0.10       0.15
      6.22       0.16      -0.00
      5.98      -0.01      -0.12
      5.75       0.01       0.22
      6.14      -0.01       0.15
      6.10      -0.05      -0.20
      5.73      -0.35      -0.16
      5.98       0.10       0.33
      6.02       0.10       0.07
      5.97      -0.08      -0.38
      5.83       0.12       0.16
      6.24       0.05      -0.04
      6.05      -0.01      -0.03
      5.68      -0.03       0.13
      6.06       0.08       0.15
      6.06      -0.01      -0.16
      5.90      -0.26      -0.26
      6.03       0.03       0.24
      6.09       0.23       0.07
      6.00      -0.02      -0.31
      5.74      -0.05       0.29
      6.16      -0.06      -0.03
      6.19       0.00       0.01
      5.58      -0.14       0.02
      5.97       0.16       0.14
      6.02       0.04      -0.08
      5.99      -0.17      -0.34
      5.99       0.05       0.17
      6.17       0.21       0.03
      5.99      -0.01      -0.19
      5.74      -0.02       0.25
      6.14      -0.03       0.09
      6.13      -0.03      -0.13
      5.68      -0.28      -0.11
      5.98       0.12       0.28
      6.01       0.07       0.03
      5.97      -0.11      -0.39
      5.88       0.17       0.12
      6.27       0.10      -0.04
      5.99      -0.02      -0.06
      5.74       0.02       0.17
      6.10       0.04       0.17
      6.07      -0.03      -0.20
      5.82      -0.30      -0.22
      6.01       0.06       0.28
      6.06       0.17       0.07
      5.98      -0.05      -0.34
      5.78       0.03       0.23
      6.20      -0.01      -0.03
      6.13      -0.00      -0.01
      5.61      -0.09       0.07
      6.00       0.14       0.13
      6.03       0.02      -0.13
      5.99      -0.20      -0.31
      6.04      -0.01       0.20
      6.13       0.26       0.06
      6.00      -0.00      -0.25
      5.73      -0.06       0.29
      6.15      -0.05       0.03
      6.16      -0.02      -0.07
      5.64      -0.22      -0.05
      5.98       0.14       0.22
      6.02       0.06      -0.02
      5.98      -0.14      -0.37
      5.93       0.12       0.14
      6.23       0.15      -0.01
      5.98      -0.01      -0.11
      5.76       0.02       0.21
      6.14      -0.00       0.17
      6.09      -0.05      -0.22
      5.75      -0.35      -0.17
      5.99       0.09       0.32
      6.03       0.12       0.07
      5.97      -0.07      -0.37
      5.82       0.10       0.17
      6.23       0.04      -0.04
      6.07      -0.01      -0.03
      5.67      -0.04       0.11
      6.05       0.10       0.15
      6.05      -0.00      -0.16
      5.92      -0.24      -0.27
      6.03       0.02       0.23
      6.09       0.24       0.07
      6.54      -0.18       0.07
      6.63       0.19       0.09
      6.28       0.05       0.12
      6.62       0.05      -0.12
      6.54       0.03       0.17
      6.40       0.13      -0.29
      6.24      -0.22      -0.02
      5.30      -0.91       0.31
      5.10      -0.61       0.21
      4.88      -0.70       0.26
      5.16      -1.01       0.23
      5.24      -0.61       0.32
      4.87      -0.83       0.31
      5.26      -0.73       0.10
      5.18      -0.81       0.37
      5.04      -0.63      -0.13
      4.82      -0.93       0.20
      5.18      -0.93       0.33
      5.25      -0.55       0.28
      5.02      -0.54       0.32
      5.25      -0.80       0.11
      5.30      -0.65       0.39
      5.08      -0.65       0.23
      5.32      -0.78       0.02
      5.32      -0.91       0.34
      5.12      -0.60      -0.08
      4.95      -0.77       0.14
      5.30      -0.83       0.29
      5.41      -0.48       0.30
      5.14      -0.50       0.32
      5.42      -0.62       0.06
      5.40      -0.60       0.37
      5.26      -0.51       0.01
      5.24      -0.80       0.10
      5.44      -0.84       0.30
      5.43      -0.44       0.07
      5.47      -0.42       0.14
      6.02      -0.54       0.14
      6.28      -0.03       0.16
      6.03      -0.20       0.15
      6.55       0.01      -0.06
      6.47      -0.03       0.18
      6.37       0.10      -0.34
      6.14      -0.25       0.03
      6.51      -0.24       0.14
      6.56       0.16       0.05
      6.32       0.12       0.09
      6.57      -0.17      -0.03
      6.61       0.08       0.17
      6.31      -0.02       0.07
      6.61      -0.06      -0.13
      6.55      -0.18       0.17
      6.36       0.06      -0.29
      6.13      -0.18      -0.02
      6.42      -0.23       0.15
      6.44       0.05       0.16
      6.10       0.07       0.22
      6.18      -0.25      -0.05
      6.05      -0.30       0.32
      5.75      -0.30       0.08
      5.70      -0.61       0.02
      5.67      -0.76       0.31
      5.45      -0.45       0.01
      5.19      -0.62       0.17
      6.55      -0.19       0.06
      6.63       0.19       0.09
      6.27       0.03       0.11
      6.63       0.06      -0.12
      6.53       0.04       0.16
      6.40       0.13      -0.31
      6.21      -0.23      -0.01
      6.53      -0.22       0.12
      6.56       0.20      -0.01
      6.32       0.12       0.03
      6.59      -0.20      -0.01
      6.64       0.16       0.11
      6.27      -0.04       0.07
      6.64       0.03      -0.13
      6.54      -0.07       0.14
      6.38       0.11      -0.34
      6.16      -0.17      -0.03
      6.52      -0.18       0.11
      6.58       0.18       0.07
      6.35       0.20       0.11
      6.56      -0.06      -0.12
      6.58       0.05       0.19
      6.37       0.07       0.01
      6.59      -0.10      -0.19
      6.57      -0.24       0.13
      6.38       0.09      -0.26
      6.19      -0.07      -0.05
      6.52      -0.17       0.08
      6.61       0.18       0.10
      6.31       0.13       0.13
      6.60       0.03      -0.13
      6.55       0.03       0.18
      6.40       0.12      -0.20
      6.33      -0.19      -0.07
      6.55      -0.23       0.12
      6.51       0.17      -0.08
      6.29       0.06       0.00
      6.58      -0.22       0.03
      6.66       0.20       0.08
      6.22      -0.09       0.10
      6.66       0.08      -0.11
      6.53       0.01       0.15
      6.40       0.13      -0.36
      6.16      -0.21      -0.00
      6.52      -0.20       0.12
      6.57       0.19       0.03
      6.34       0.16       0.07
      6.57      -0.12      -0.07
      6.61       0.10       0.15
      6.32       0.02       0.04
      6.61      -0.04      -0.17
      6.56      -0.17       0.14
      6.37       0.09      -0.31
      6.17      -0.12      -0.06
      6.50      -0.15       0.11
      6.59       0.17       0.11
      6.35       0.22       0.14
      6.57       0.00      -0.15
      6.56       0.02       0.20
      6.39       0.10      -0.10
      6.45      -0.15      -0.13
      6.56      -0.23       0.13
      6.45       0.14      -0.16
      6.25       0.00      -0.02
      6.56      -0.20       0.05
      6.64       0.19       0.09
      6.26       0.01       0.11
      6.64       0.07      -0.11
      6.53       0.04       0.16
      6.40       0.14      -0.34
      6.17      -0.24       0.01
      6.53      -0.22       0.12
      6.56       0.20       0.00
      6.33       0.13       0.04
      6.58      -0.18      -0.02
      6.64       0.15       0.11
      6.28      -0.03       0.07
      6.63       0.01      -0.14
      6.55      -0.09       0.14
      6.38       0.11      -0.33
      6.16      -0.16      -0.03
      6.51      -0.17       0.11
      6.58       0.18       0.08
      6.35       0.21       0.12
      6.56      -0.04      -0.13
      6.57       0.03       0.20
      6.38       0.08       0.01
      6.57      -0.11      -0.19
      6.57      -0.23       0.13
      6.39       0.10      -0.24
      6.20      -0.06      -0.05
      6.53      -0.17       0.08
      6.62       0.18       0.10
      6.30       0.10       0.12
      6.60       0.04      -0.13
      6.54       0.03       0.18
      6.40       0.12      -0.23
      6.29      -0.20      -0.05
      6.54      -0.23       0.12
      6.52       0.18      -0.06
      7.05       0.20      -0.15
      6.54       0.02      -0.04
      6.99      -0.12       0.16
      6.95      -0.08       0.17
      6.58      -0.12      -0.23
      6.78       0.24       0.37
      6.98      -0.11      -0.01
      6.81       0.05      -0.28
      5.17      -0.89       0.10
      5.31      -0.89       0.28
      5.31      -0.78       0.28
      4.81      -0.91       0.18
      5.43      -0.99       0.38
      5.42      -0.99       0.43
      5.11      -1.00      -0.03
      5.22      -0.65       0.58
      5.42      -0.98       0.28
      5.45      -0.71      -0.02
      5.20      -0.80       0.16
      5.41      -0.86       0.40
      5.41      -0.86       0.32
      4.91      -0.87       0.08
      5.41      -0.67       0.41
      5.58      -1.00       0.31
      5.24      -0.89      -0.12
      5.34      -0.65       0.39
      5.53      -0.94       0.33
      5.70      -0.56      -0.01
      5.21      -0.72       0.20
      5.58      -0.83       0.42
      5.56      -0.84       0.36
      5.16      -0.84       0.00
      5.47      -0.51       0.51
      5.68      -0.87       0.22
      5.46      -0.72      -0.10
      5.48      -0.68       0.15
      5.80      -0.70       0.23
      6.15      -0.33       0.10
      5.87      -0.36       0.06
      6.69      -0.40       0.20
      6.77      -0.22       0.26
      6.53      -0.25      -0.21
      6.67       0.16       0.44
      6.88      -0.17       0.03
      6.83       0.04      -0.24
      6.71      -0.03      -0.10
      6.88      -0.06       0.13
      6.89      -0.02       0.09
      6.37      -0.09      -0.09
      6.91      -0.02       0.18
      6.98      -0.21       0.15
      6.64      -0.16      -0.29
      6.72       0.12       0.27
      6.87      -0.24       0.12
      6.92       0.07      -0.22
      6.37      -0.15       0.05
      6.48      -0.32       0.34
      6.30      -0.49       0.25
      5.63      -0.57      -0.04
      5.85      -0.38       0.42
      5.89      -0.86       0.25
      5.46      -0.79      -0.10
      5.42      -0.71       0.28
      5.51      -0.92       0.32
      7.04       0.19      -0.13
      6.52       0.02      -0.04
      7.00      -0.13       0.15
      6.96      -0.08       0.18
      6.60      -0.13      -0.23
      6.77       0.24       0.39
      6.97      -0.10      -0.02
      6.82       0.06      -0.27
      6.82       0.02      -0.17
      6.94       0.01       0.03
      6.94       0.11       0.03
      6.41      -0.02      -0.09
      7.00      -0.08       0.13
      7.00      -0.12       0.16
      6.68      -0.12      -0.29
      6.76       0.20       0.31
      6.96      -0.13       0.04
      7.01       0.16      -0.28
      6.71       0.05      -0.07
      6.93      -0.01       0.17
      6.92      -0.04       0.08
      6.40      -0.05      -0.17
      6.87       0.17       0.17
      7.05      -0.20       0.07
      6.70      -0.08      -0.36
      6.78       0.13       0.14
      6.96      -0.14       0.09
      7.10       0.21      -0.21
      6.59       0.04      -0.03
      6.97      -0.08       0.19
      6.94      -0.09       0.15
      6.53      -0.10      -0.22
      6.80       0.23       0.32
      7.00      -0.13       0.01
      6.78       0.01      -0.30
      6.81       0.05      -0.08
      6.95      -0.02       0.03
      6.97       0.16      -0.03
      6.44      -0.01      -0.05
      7.05      -0.18       0.11
      6.98      -0.08       0.20
      6.67      -0.14      -0.26
      6.76       0.23       0.38
      6.96      -0.11       0.00
      6.92       0.11      -0.27
      6.76       0.03      -0.12
      6.93      -0.00       0.11
      6.93       0.03       0.06
      6.40      -0.04      -0.13
      6.93       0.06       0.15
      7.03      -0.16       0.11
      6.69      -0.10      -0.33
      6.77       0.17       0.22
      6.96      -0.16       0.09
      7.12       0.22      -0.28
      6.66       0.06      -0.02
      6.93      -0.04       0.22
      6.92      -0.09       0.12
      6.45      -0.07      -0.20
      6.83       0.22       0.24
      7.02      -0.17       0.03
      6.75      -0.03      -0.33
      6.79       0.09       0.01
      6.95      -0.08       0.06
      7.03       0.18      -0.11
      6.50       0.01      -0.04
      7.01      -0.14       0.15
      6.96      -0.08       0.19
      6.62      -0.13      -0.24
      6.76       0.25       0.40
      6.97      -0.09      -0.03
      6.83       0.07      -0.27
      6.81       0.02      -0.16
      6.94       0.01       0.05
      6.94       0.10       0.03
      6.41      -0.02      -0.10
      6.98      -0.05       0.13
      7.01      -0.13       0.15
      6.68      -0.12      -0.30
      6.76       0.20       0.29
      6.96      -0.14       0.05
      7.03       0.17      -0.28
      6.70       0.05      -0.06
      6.93      -0.02       0.19
      6.92      -0.06       0.09
      6.40      -0.05      -0.18
      6.85       0.20       0.18
      7.05      -0.20       0.06
      6.71      -0.07      -0.35
      6.78       0.13       0.11
      6.96      -0.13       0.09
      7.08       0.21      -0.19
      6.57       0.03      -0.03
      6.98      -0.09       0.18
      6.94      -0.08       0.16
      6.55      -0.11      -0.22
      6.79       0.23       0.33
      6.99      -0.12      -0.00
      6.79       0.03      -0.29
      6.81       0.04      -0.11
      7.28      -0.14      -0.00
      7.14      -0.09       0.08
      6.92       0.08      -0.09
      7.28      -0.02       0.06
      7.18       0.12      -0.09
      6.88      -0.17      -0.11
      7.25       0.27       0.19
      7.24       0.07       0.05
      5.37      -1.20       0.39
      5.17      -1.00       0.12
      5.49      -1.15       0.36
      5.29      -1.01       0.21
      5.19      -0.90       0.16
      5.57      -0.89       0.35
      5.47      -0.93       0.18
      5.21      -1.14       0.24
      5.53      -0.77       0.43
      5.53      -0.99       0.28
      5.49      -1.11       0.46
      5.19      -0.93       0.17
      5.56      -1.05       0.33
      5.39      -0.78       0.20
      5.25      -0.92       0.11
      5.74      -0.69       0.32
      5.54      -0.93       0.16
      5.43      -1.02       0.30
      5.62      -0.82       0.31
      5.66      -1.02       0.22
      5.58      -0.99       0.42
      5.31      -0.81       0.17
      5.69      -0.91       0.31
      5.58      -0.70       0.17
      5.36      -0.96       0.11
      5.79      -0.57       0.39
      5.71      -0.80       0.24
      5.63      -1.02       0.32
      5.56      -0.83       0.14
      6.10      -0.84       0.24
      6.22      -0.58       0.12
      6.38      -0.26       0.01
      6.93      -0.22       0.15
      6.96      -0.12      -0.04
      6.67      -0.37      -0.02
      7.03       0.10       0.25
      7.07      -0.10       0.09
      7.05      -0.30       0.19
      6.80      -0.10      -0.09
      7.16      -0.23       0.11
      6.97      -0.02      -0.03
      6.85      -0.06      -0.10
      7.27       0.07       0.10
      7.09      -0.10      -0.06
      6.89      -0.25       0.05
      7.08      -0.03       0.16
      6.95      -0.34       0.04
      6.71      -0.47       0.34
      6.16      -0.42       0.07
      6.33      -0.66       0.22
      5.95      -0.50       0.14
      5.56      -0.87       0.09
      5.84      -0.65       0.36
      5.55      -0.97       0.23
      5.36      -1.17       0.35
      5.33      -1.00       0.26
      7.01      -0.30       0.05
      7.13      -0.08       0.06
      6.92       0.08      -0.09
      7.28      -0.01       0.06
      7.19       0.11      -0.09
      6.87      -0.19      -0.10
      7.24       0.28       0.21
      7.25       0.08       0.06
      7.21      -0.19       0.11
      6.97       0.01      -0.16
      7.30      -0.13       0.07
      7.08       0.01      -0.08
      6.95       0.08      -0.12
      7.34       0.10       0.07
      7.21       0.03      -0.10
      6.95      -0.18      -0.03
      7.25       0.17       0.15
      7.25      -0.05      -0.00
      7.20      -0.16       0.20
      6.89       0.02      -0.10
      7.25      -0.11       0.05
      7.07       0.17      -0.07
      6.92      -0.01      -0.16
      7.40       0.24       0.06
      7.18      -0.03      -0.09
      7.06      -0.13       0.04
      7.22       0.07       0.04
      7.27      -0.14      -0.03
      7.16      -0.11       0.15
      6.89       0.06      -0.08
      7.26      -0.04       0.06
      7.14       0.15      -0.08
      6.89      -0.13      -0.12
      7.29       0.27       0.16
      7.23       0.05       0.02
      7.17      -0.17       0.09
      7.04       0.02      -0.12
      7.30      -0.14       0.05
      7.09      -0.05      -0.06
      6.96       0.11      -0.10
      7.31       0.04       0.07
      7.22       0.06      -0.10
      6.90      -0.20      -0.07
      7.23       0.23       0.19
      7.25       0.01       0.03
      7.20      -0.17       0.16
      6.93       0.02      -0.13
      7.27      -0.12       0.06
      7.07       0.10      -0.07
      6.93       0.03      -0.14
      7.37       0.18       0.06
      7.19      -0.01      -0.10
      7.01      -0.14       0.01
      7.26       0.10       0.10
      7.26      -0.13      -0.05
      7.19      -0.14       0.24
      6.86       0.03      -0.07
      7.25      -0.08       0.05
      7.10       0.18      -0.07
      6.90      -0.08      -0.15
      7.34       0.26       0.11
      7.20       0.01      -0.03
      7.12      -0.15       0.07
      7.12       0.04      -0.05
      7.28      -0.14       0.02
      7.12      -0.08       0.03
      6.93       0.09      -0.09
      7.29       0.00       0.07
      7.20       0.10      -0.10
      6.87      -0.20      -0.10
      7.23       0.28       0.22
      7.25       0.08       0.07
      7.21      -0.19       0.12
      6.96       0.01      -0.16
      7.29      -0.13       0.07
      7.08       0.03      -0.08
      6.95       0.07      -0.13
      7.34       0.12       0.06
      7.20       0.03      -0.10
      6.96      -0.17      -0.02
      7.25       0.16       0.14
      7.26      -0.07      -0.01
      7.20      -0.16       0.20
      6.88       0.02      -0.09
      7.25      -0.10       0.05
      7.07       0.19      -0.07
      6.91      -0.02      -0.16
      7.40       0.25       0.06
      7.18      -0.02      -0.08
      7.07      -0.13       0.05
      7.20       0.06       0.02
      7.27      -0.14      -0.02
      7.15      -0.11       0.12
      6.90       0.07      -0.08
      7.27      -0.03       0.06
      7.16       0.14      -0.09
      6.88      -0.15      -0.12
      7.28       0.27       0.17
      7.23       0.05       0.03
      7.18      -0.18       0.09
      7.57       0.16      -0.13
      7.45       0.41      -0.19
      7.39      -0.29       0.20
      7.38      -0.18      -0.08
      7.50       0.20      -0.13
      7.49      -0.23       0.26
      6.93      -0.20       0.01
      7.54       0.14       0.08
      5.34      -1.08       0.44
      5.56      -1.11       0.24
      5.60      -1.02       0.07
      5.46      -0.57       0.08
      5.49      -1.40       0.55
      5.37      -1.24       0.28
      5.62      -0.89       0.19
      5.60      -1.19       0.58
      5.13      -1.22       0.22
      5.66      -0.87       0.33
      5.55      -0.88       0.27
      5.55      -1.18       0.35
      5.61      -1.12       0.14
      5.60      -0.73       0.13
      5.58      -1.26       0.49
      5.31      -1.13       0.36
      5.73      -0.86       0.20
      5.66      -0.97       0.56
      5.39      -1.10       0.12
      5.79      -0.78       0.22
      5.72      -0.64       0.12
      5.63      -1.20       0.43
      5.66      -1.13       0.18
      5.75      -0.75       0.14
      5.75      -1.17       0.50
      5.29      -1.11       0.30
      5.84      -0.80       0.29
      5.66      -0.93       0.44
      5.63      -1.06       0.18
      6.02      -0.78       0.04
      6.19      -0.21      -0.03
      6.53      -0.88       0.40
      6.73      -0.59       0.05
      7.04      -0.12      -0.03
      7.10      -0.48       0.37
      6.55      -0.46       0.04
      7.19      -0.08       0.14
      7.06      -0.12       0.11
      7.19      -0.29       0.07
      7.27      -0.21      -0.13
      7.22       0.22      -0.13
      7.24      -0.44       0.27
      7.01      -0.31       0.09
      7.33      -0.02      -0.04
      7.26      -0.22       0.34
      6.81      -0.36      -0.07
      7.09      -0.12       0.09
      6.79      -0.22       0.02
      6.41      -0.81       0.29
      6.23      -0.91       0.10
      6.01      -0.68       0.11
      5.76      -1.23       0.48
      5.20      -1.24       0.36
      5.55      -1.03       0.28
      5.33      -1.19       0.54
      5.20      -1.30       0.20
      7.26      -0.03      -0.09
      7.44       0.43      -0.20
      7.39      -0.30       0.21
      7.37      -0.18      -0.08
      7.50       0.20      -0.13
      7.49      -0.23       0.27
      6.91      -0.21       0.00
      7.54       0.15       0.09
      7.32       0.03       0.12
      7.51      -0.03      -0.05
      7.55       0.05      -0.23
      7.41       0.49      -0.22
      7.41      -0.32       0.24
      7.27      -0.17      -0.01
      7.52       0.17      -0.11
      7.48      -0.12       0.28