# vtk DataFile Version 3.0
Low resolution, disturbed wind of XZ Slice at time = 96.25 seconds.
ASCII
DATASET STRUCTURED_POINTS
DIMENSIONS   164     1    17
ORIGIN     -88.00       0.00      11.00
SPACING      12.03      10.10      10.00
POINT_DATA            2788
VECTORS Velocity float
      5.31       0.24       0.21
      5.17      -0.36      -0.16
      5.16       0.05       0.12
      5.36       0.29       0.25
      5.23      -0.21      -0.19
      5.03       0.01      -0.19
      5.36       0.24       0.03
      4.39      -0.42       0.34
      4.26      -0.80      -0.27
      4.40      -0.75       0.23
      4.33      -0.36       0.43
      4.08      -0.99       0.12
      4.09      -0.38       0.34
      4.40      -0.26       0.34
      4.30      -0.74       0.03
      4.05      -0.57      -0.14
      4.43      -0.36       0.20
      4.33      -0.34       0.36
      4.35      -0.77      -0.20
      4.39      -0.68       0.17
      4.45      -0.26       0.50
      4.22      -0.77       0.04
      4.14      -0.42       0.17
      4.58      -0.24       0.32
      4.40      -0.65       0.16
      4.14      -0.56      -0.26
      4.60      -0.41       0.23
      4.46      -0.20       0.33
      4.41      -0.75      -0.10
      4.40      -0.50       0.19
      4.58      -0.16       0.45
      4.42      -0.63      -0.04
      4.28      -0.39       0.00
      4.70      -0.15       0.20
      4.77      -0.30       0.23
      4.87      -0.38      -0.36
      5.21      -0.25       0.12
      5.19       0.12       0.28
      5.03      -0.49      -0.04
      5.08       0.14       0.23
      5.35       0.28       0.20
      5.27      -0.22      -0.18
      5.04      -0.02      -0.24
      5.36       0.20       0.03
      5.29       0.13       0.23
      5.32      -0.25      -0.38
      5.37      -0.18       0.06
      5.37       0.21       0.33
      5.12      -0.35      -0.06
      5.07       0.10       0.11
      5.44       0.25       0.20
      5.28      -0.20      -0.03
      5.00      -0.08      -0.34
      5.41       0.08       0.11
      5.25       0.20       0.22
      5.21      -0.31      -0.26
      5.14      -0.24       0.04
      5.22       0.16       0.44
      4.94      -0.35      -0.07
      4.75      -0.13       0.02
      5.11       0.04       0.22
      4.90      -0.31       0.19
      5.12      -0.14      -0.42
      5.44      -0.04       0.08
      5.31       0.23       0.22
      5.16      -0.37      -0.15
      5.15       0.07       0.14
      5.36       0.29       0.24
      5.23      -0.20      -0.19
      5.04       0.01      -0.20
      5.35       0.24       0.02
      5.28       0.09       0.21
      5.32      -0.23      -0.44
      5.42      -0.17       0.05
      5.35       0.22       0.27
      5.09      -0.40      -0.06
      5.08       0.16       0.15
      5.39       0.28       0.17
      5.27      -0.19      -0.12
      5.02      -0.04      -0.32
      5.39       0.16       0.05
      5.28       0.19       0.20
      5.29      -0.25      -0.34
      5.30      -0.16       0.01
      5.37       0.25       0.36
      5.13      -0.25      -0.12
      5.03       0.06       0.00
      5.48       0.24       0.17
      5.28      -0.16       0.03
      5.03      -0.10      -0.41
      5.44       0.03       0.09
      5.30       0.25       0.20
      5.22      -0.32      -0.22
      5.19      -0.03       0.07
      5.37       0.28       0.30
      5.20      -0.21      -0.17
      5.03       0.02      -0.14
      5.39       0.24       0.07
      5.28       0.01       0.16
      5.24      -0.19      -0.43
      5.44      -0.12       0.07
      5.34       0.22       0.24
      5.09      -0.44      -0.06
      5.10       0.20       0.22
      5.36       0.30       0.17
      5.26      -0.20      -0.18
      5.03      -0.02      -0.27
      5.36       0.20       0.02
      5.28       0.15       0.21
      5.30      -0.24      -0.39
      5.35      -0.17       0.03
      5.36       0.23       0.32
      5.12      -0.32      -0.09
      5.05       0.11       0.07
      5.44       0.26       0.17
      5.27      -0.18      -0.04
      5.00      -0.07      -0.38
      5.43       0.10       0.08
      5.28       0.25       0.18
      5.27      -0.26      -0.29
      5.23      -0.13       0.01
      5.37       0.27       0.36
      5.17      -0.21      -0.15
      5.03       0.03      -0.08
      5.43       0.24       0.12
      5.28      -0.07       0.10
      5.14      -0.15      -0.42
      5.44      -0.05       0.08
      5.32       0.23       0.22
      5.15      -0.39      -0.13
      5.14       0.10       0.15
      5.36       0.29       0.22
      5.24      -0.20      -0.20
      5.04       0.00      -0.22
      5.34       0.25       0.01
      5.28       0.11       0.22
      5.32      -0.23      -0.43
      5.41      -0.17       0.05
      5.35       0.22       0.28
      5.10      -0.39      -0.06
      5.07       0.15       0.14
      5.40       0.28       0.17
      5.27      -0.19      -0.10
      5.01      -0.05      -0.33
      5.40       0.14       0.06
      5.28       0.21       0.19
      5.29      -0.25      -0.33
      5.28      -0.16       0.01
      5.37       0.25       0.37
      5.14      -0.23      -0.13
      5.03       0.05      -0.01
      5.47       0.24       0.17
      5.28      -0.14       0.04
      5.05      -0.11      -0.41
      5.44       0.02       0.09
      5.30       0.24       0.20
      5.20      -0.33      -0.20
      5.18      -0.00       0.09
      5.36       0.28       0.28
      5.21      -0.21      -0.18
      5.03       0.02      -0.16
      5.38       0.24       0.06
      5.28       0.03       0.17
      5.26      -0.20      -0.43
      6.15      -0.02      -0.09
      5.65      -0.24      -0.07
      5.98       0.13       0.24
      6.02       0.06      -0.00
      5.97      -0.13      -0.38
      5.91       0.14       0.13
      6.24       0.14      -0.02
      4.92      -0.60       0.08
      4.51      -0.66       0.40
      4.90      -0.68       0.39
      4.87      -0.72      -0.02
      4.57      -1.01       0.01
      4.80      -0.59       0.50
      4.86      -0.52       0.26
      4.81      -0.71      -0.17
      4.65      -0.57       0.38
      5.07      -0.62       0.16
      4.94      -0.64       0.17
      4.51      -0.68       0.29
      4.91      -0.51       0.32
      4.94      -0.60       0.04
      4.84      -0.83      -0.10
      4.95      -0.59       0.40
      5.03      -0.33       0.25
      4.94      -0.59      -0.11
      4.67      -0.66       0.48
      5.12      -0.63       0.16
      5.16      -0.56       0.15
      4.60      -0.72       0.15
      4.99      -0.39       0.34
      5.05      -0.48       0.11
      5.03      -0.68      -0.19
      5.03      -0.44       0.31
      5.29      -0.32       0.16
      5.25      -0.43      -0.02
      5.23      -0.31       0.33
      5.79      -0.23       0.20
      5.89      -0.18      -0.12
      5.60      -0.41      -0.10
      5.93       0.06       0.35
      5.99       0.05       0.09
      5.96      -0.11      -0.37
      5.85       0.13       0.16
      6.26       0.06      -0.02
      6.03      -0.03      -0.02
      5.71      -0.03       0.16
      6.08       0.05       0.18
      6.07      -0.04      -0.15
      5.87      -0.30      -0.22
      6.02       0.02       0.28
      6.08       0.18       0.09
      5.99      -0.05      -0.30
      5.74      -0.05       0.29
      6.13      -0.09       0.01
      6.07      -0.08       0.05
      5.42      -0.23       0.10
      5.73       0.01       0.19
      5.70      -0.18      -0.01
      5.57      -0.45      -0.22
      5.49      -0.29       0.31
      5.55      -0.13       0.18
      5.32      -0.40      -0.06
      5.64      -0.10       0.29
      6.15      -0.04       0.07
      6.14      -0.02      -0.11
      5.66      -0.26      -0.08
      5.98       0.13       0.25
      6.01       0.07       0.01
      5.97      -0.12      -0.38
      5.90       0.15       0.13
      6.26       0.12      -0.03
      5.98      -0.02      -0.07
      5.76       0.04       0.19
      6.12       0.02       0.18
      6.08      -0.04      -0.21
      5.79      -0.32      -0.20
      6.00       0.07       0.30
      6.04       0.15       0.07
      5.98      -0.06      -0.35
      5.80       0.06       0.21
      6.21       0.01      -0.03
      6.10      -0.01      -0.02
      5.64      -0.07       0.09
      6.02       0.12       0.13
      6.04       0.01      -0.14
      5.96      -0.22      -0.29
      6.04       0.00       0.21
      6.11       0.27       0.07
      6.00      -0.00      -0.27
      5.73      -0.07       0.30
      6.15      -0.06       0.01
      6.17      -0.01      -0.04
      5.62      -0.19      -0.03
      5.98       0.15       0.19
      6.02       0.05      -0.04
      5.98      -0.15      -0.36
      5.95       0.09       0.15
      6.21       0.17       0.00
      5.99      -0.01      -0.13
      5.75       0.01       0.23
      6.14      -0.01       0.14
      6.11      -0.04      -0.19
      5.72      -0.34      -0.15
      5.98       0.10       0.33
      6.01       0.09       0.07
      5.97      -0.09      -0.39
      5.84       0.13       0.15
      6.25       0.06      -0.04
      6.04      -0.01      -0.04
      5.69      -0.02       0.13
      6.07       0.08       0.15
      6.06      -0.01      -0.17
      5.88      -0.26      -0.25
      6.02       0.03       0.25
      6.08       0.22       0.07
      5.99      -0.02      -0.31
      5.75      -0.04       0.28
      6.17      -0.05      -0.03
      6.18       0.00       0.01
      5.57      -0.13       0.03
      5.97       0.17       0.13
      6.02       0.04      -0.09
      5.99      -0.17      -0.33
      6.00       0.04       0.18
      6.17       0.22       0.03
      5.99      -0.01      -0.20
      5.74      -0.03       0.26
      6.15      -0.03       0.08
      6.13      -0.03      -0.12
      5.67      -0.27      -0.10
      5.98       0.12       0.27
      6.01       0.07       0.03
      5.97      -0.11      -0.39
      5.89       0.16       0.12
      6.27       0.11      -0.04
      5.98      -0.02      -0.06
      5.75       0.03       0.18
      6.11       0.03       0.18
      6.08      -0.03      -0.20
      5.81      -0.31      -0.21
      6.00       0.06       0.29
      6.05       0.16       0.07
      5.98      -0.05      -0.35
      5.79       0.04       0.22
      6.20       0.00      -0.03
      6.12      -0.00      -0.01
      5.62      -0.08       0.08
      6.01       0.14       0.13
      6.04       0.02      -0.13
      5.98      -0.21      -0.30
      6.05      -0.01       0.20
      6.12       0.27       0.06
      6.00      -0.00      -0.26
      5.73      -0.06       0.29
      6.15      -0.05       0.02
      6.16      -0.01      -0.06
      5.63      -0.21      -0.04
      5.98       0.14       0.21
      6.02       0.06      -0.03
      5.98      -0.14      -0.36
      5.94       0.11       0.15
      6.22       0.16      -0.01
      5.98      -0.01      -0.12
      5.76       0.02       0.22
      6.29      -0.01       0.06
      6.62      -0.01      -0.15
      6.55      -0.11       0.14
      6.38       0.10      -0.32
      6.17      -0.15      -0.04
      6.51      -0.17       0.11
      6.59       0.18       0.09
      5.12      -0.46       0.31
      5.10      -0.83       0.09
      5.12      -0.79       0.44
      4.97      -0.70       0.21
      5.12      -0.91       0.06
      5.17      -1.01       0.36
      5.04      -0.66       0.01
      4.86      -0.80       0.18
      5.17      -0.94       0.29
      5.27      -0.57       0.32
      4.94      -0.68       0.34
      5.27      -0.69       0.10
      5.22      -0.70       0.39
      5.09      -0.59      -0.05
      4.96      -0.92       0.18
      5.26      -0.93       0.33
      5.27      -0.51       0.17
      5.06      -0.59       0.22
      5.34      -0.91       0.21
      5.43      -0.49       0.29
      5.04      -0.73       0.28
      5.45      -0.61       0.07
      5.35      -0.69       0.34
      5.23      -0.52      -0.16
      5.01      -0.82       0.17
      5.38      -0.82       0.30
      5.46      -0.44       0.24
      5.30      -0.40       0.27
      5.78      -0.54       0.04
      6.05      -0.26       0.28
      6.00      -0.17       0.10
      6.40      -0.21      -0.13
      6.47      -0.30       0.18
      6.31       0.03      -0.26
      6.14      -0.14      -0.03
      6.49      -0.19       0.12
      6.59       0.14       0.13
      6.31       0.13       0.15
      6.57      -0.01      -0.11
      6.54      -0.00       0.21
      6.39       0.08      -0.13
      6.37      -0.20      -0.07
      6.54      -0.26       0.15
      6.47       0.12      -0.09
      6.25      -0.00       0.02
      6.51      -0.27       0.07
      6.53       0.10       0.13
      6.04      -0.20       0.17
      6.34      -0.13      -0.02
      6.08      -0.25       0.26
      5.81      -0.23      -0.24
      5.43      -0.67       0.16
      5.67      -0.72       0.29
      5.60      -0.37       0.21
      5.29      -0.46       0.26
      6.42      -0.24      -0.02
      6.62       0.12       0.14
      6.31      -0.00       0.05
      6.62      -0.02      -0.16
      6.56      -0.13       0.14
      6.37       0.10      -0.32
      6.17      -0.14      -0.05
      6.51      -0.16       0.11
      6.59       0.18       0.10
      6.35       0.24       0.13
      6.55      -0.01      -0.15
      6.56       0.02       0.21
      6.39       0.10      -0.05
      6.50      -0.13      -0.15
      6.56      -0.23       0.13
      6.43       0.12      -0.20
      6.23      -0.02      -0.03
      6.54      -0.19       0.06
      6.63       0.19       0.09
      6.28       0.05       0.12
      6.62       0.06      -0.12
      6.54       0.04       0.17
      6.40       0.13      -0.30
      6.22      -0.22      -0.02
      6.54      -0.22       0.12
      6.55       0.20      -0.02
      6.32       0.11       0.03
      6.59      -0.21      -0.00
      6.65       0.17       0.10
      6.26      -0.05       0.08
      6.64       0.04      -0.13
      6.54      -0.06       0.14
      6.39       0.12      -0.34
      6.16      -0.18      -0.02
      6.52      -0.18       0.11
      6.58       0.18       0.06
      6.34       0.20       0.10
      6.56      -0.07      -0.11
      6.58       0.06       0.18
      6.36       0.06       0.02
      6.59      -0.09      -0.19
      6.58      -0.23       0.14
      6.37       0.09      -0.28
      6.19      -0.08      -0.06
      6.52      -0.16       0.09
      6.61       0.18       0.10
      6.31       0.14       0.13
      6.59       0.03      -0.13
      6.55       0.03       0.18
      6.40       0.11      -0.19
      6.34      -0.18      -0.08
      6.55      -0.23       0.13
      6.50       0.16      -0.10
      6.28       0.05      -0.00
      6.58      -0.21       0.03
      6.65       0.20       0.08
      6.23      -0.07       0.10
      6.66       0.09      -0.10
      6.53       0.02       0.15
      6.40       0.13      -0.37
      6.16      -0.22      -0.00
      6.52      -0.20       0.12
      6.57       0.19       0.03
      6.33       0.16       0.07
      6.57      -0.13      -0.06
      6.61       0.11       0.15
      6.32       0.01       0.04
      6.61      -0.03      -0.16
      6.56      -0.15       0.14
      6.37       0.09      -0.31
      6.17      -0.13      -0.05
      6.51      -0.15       0.11
      6.59       0.17       0.10
      6.35       0.23       0.14
      6.56      -0.00      -0.15
      6.56       0.02       0.20
      6.39       0.10      -0.08
      6.46      -0.14      -0.14
      6.56      -0.23       0.13
      6.44       0.13      -0.18
      6.24      -0.01      -0.03
      6.55      -0.19       0.06
      6.63       0.19       0.09
      6.27       0.02       0.11
      6.63       0.06      -0.11
      6.53       0.04       0.16
      6.40       0.13      -0.32
      6.19      -0.23      -0.00
      6.53      -0.22       0.12
      6.56       0.20      -0.00
      6.33       0.12       0.03
      6.59      -0.19      -0.02
      6.64       0.16       0.11
      6.27      -0.04       0.07
      6.63       0.02      -0.14
      6.55      -0.08       0.14
      6.38       0.11      -0.34
      6.16      -0.17      -0.03
      6.51      -0.18       0.11
      6.58       0.18       0.07
      6.35       0.21       0.11
      6.56      -0.05      -0.12
      6.96      -0.01       0.14
      7.01      -0.14       0.14
      6.68      -0.11      -0.31
      6.77       0.19       0.27
      6.96      -0.15       0.06
      7.06       0.19      -0.28
      6.69       0.05      -0.05
      6.92      -0.02       0.21
      5.27      -1.00       0.36
      4.75      -0.97       0.07
      5.23      -0.69       0.46
      5.44      -1.08       0.31
      5.13      -0.94      -0.09
      5.21      -0.77       0.33
      5.40      -0.98       0.33
      5.50      -0.67       0.09
      4.99      -0.84       0.22
      5.44      -0.97       0.42
      5.40      -0.94       0.42
      5.05      -0.96       0.02
      5.27      -0.59       0.60
      5.49      -0.93       0.23
      5.32      -0.77      -0.04
      5.35      -0.77       0.09
      5.49      -0.79       0.25
      5.50      -0.65       0.25
      4.99      -0.80       0.16
      5.61      -0.90       0.35
      5.59      -0.87       0.41
      5.28      -0.90      -0.06
      5.40      -0.54       0.56
      5.61      -0.86       0.24
      5.63      -0.60      -0.06
      5.39      -0.70       0.12
      5.56      -0.78       0.37
      5.79      -0.67       0.26
      5.57      -0.54      -0.01
      6.32      -0.23       0.28
      6.70      -0.41       0.16
      6.49      -0.24      -0.30
      6.64       0.04       0.22
      6.86      -0.25       0.14
      7.03       0.14      -0.21
      6.54      -0.02       0.01
      6.88      -0.13       0.23
      6.87      -0.15       0.17
      6.44      -0.15      -0.18
      6.77       0.17       0.32
      6.97      -0.20       0.05
      6.72      -0.06      -0.28
      6.75       0.01      -0.01
      6.89      -0.11       0.08
      6.86       0.06      -0.01
      6.23      -0.17       0.02
      6.66      -0.42       0.22
      6.43      -0.43       0.33
      5.94      -0.61      -0.09
      5.84      -0.32       0.60
      5.87      -0.75       0.20
      5.64      -0.65      -0.04
      5.42      -0.77       0.11
      5.49      -0.84       0.34
      6.71      -0.07       0.09
      6.41      -0.03      -0.12
      6.95       0.01       0.15
      7.02      -0.15       0.13
      6.69      -0.11      -0.32
      6.77       0.18       0.25
      6.96      -0.15       0.07
      7.09       0.20      -0.28
      6.68       0.05      -0.04
      6.92      -0.03       0.22
      6.92      -0.10       0.11
      6.42      -0.06      -0.20
      6.84       0.21       0.22
      7.03      -0.18       0.04
      6.73      -0.04      -0.34
      6.79       0.10       0.05
      6.95      -0.10       0.07
      7.05       0.19      -0.15
      6.53       0.02      -0.04
      7.00      -0.12       0.16
      6.95      -0.08       0.17
      6.59      -0.12      -0.23
      6.78       0.24       0.37
      6.98      -0.10      -0.02
      6.81       0.05      -0.28
      6.82       0.02      -0.17
      6.94       0.02       0.02
      6.94       0.13       0.02
      6.41      -0.02      -0.08
      7.01      -0.10       0.13
      7.00      -0.11       0.17
      6.68      -0.13      -0.29
      6.76       0.21       0.32
      6.96      -0.13       0.04
      7.00       0.15      -0.27
      6.72       0.04      -0.08
      6.93      -0.01       0.16
      6.92      -0.03       0.08
      6.40      -0.05      -0.17
      6.88       0.15       0.17
      7.05      -0.20       0.07
      6.70      -0.09      -0.36
      6.77       0.14       0.15
      6.96      -0.15       0.10
      7.10       0.22      -0.23
      6.60       0.04      -0.03
      6.96      -0.08       0.19
      6.94      -0.09       0.14
      6.51      -0.10      -0.22
      6.80       0.23       0.30
      7.00      -0.14       0.01
      6.78       0.01      -0.30
      6.81       0.06      -0.07
      6.95      -0.03       0.04
      6.98       0.16      -0.04
      6.45      -0.00      -0.05
      7.04      -0.18       0.12
      6.97      -0.07       0.21
      6.67      -0.15      -0.26
      6.76       0.24       0.39
      6.96      -0.10      -0.00
      6.91       0.11      -0.27
      6.77       0.03      -0.13
      6.93      -0.00       0.10
      6.93       0.04       0.05
      6.41      -0.03      -0.13
      6.93       0.04       0.15
      7.02      -0.16       0.12
      6.69      -0.10      -0.33
      6.77       0.17       0.23
      6.96      -0.16       0.08
      7.11       0.21      -0.28
      6.66       0.06      -0.03
      6.92      -0.03       0.23
      6.92      -0.09       0.11
      6.44      -0.07      -0.20
      6.83       0.22       0.23
      7.03      -0.17       0.04
      6.74      -0.03      -0.33
      6.79       0.10       0.03
      6.95      -0.08       0.06
      7.04       0.19      -0.12
      6.51       0.02      -0.04
      7.01      -0.13       0.15
      6.96      -0.08       0.18
      6.61      -0.13      -0.24
      6.77       0.24       0.39
      6.97      -0.09      -0.02
      6.82       0.06      -0.27
      6.81       0.02      -0.17
      6.94       0.01       0.04
      6.94       0.11       0.03
      6.41      -0.02      -0.09
      6.99      -0.07       0.13
      7.00      -0.12       0.16
      6.68      -0.12      -0.30
      6.76       0.20       0.30
      6.96      -0.13       0.05
      7.02       0.17      -0.28
      6.71       0.05      -0.07
      6.93      -0.02       0.18
      6.92      -0.05       0.09
      6.94       0.05      -0.13
      7.35       0.14       0.06
      7.20       0.02      -0.10
      6.98      -0.16      -0.01
      7.25       0.14       0.12
      7.26      -0.09      -0.02
      7.19      -0.15       0.22
      6.87       0.03      -0.08
      5.41      -1.12       0.33
      5.24      -0.81       0.23
      5.11      -1.04       0.13
      5.60      -0.74       0.36
      5.42      -1.00       0.22
      5.33      -1.12       0.34
      5.44      -0.91       0.27
      5.54      -1.11       0.27
      5.40      -1.06       0.37
      5.18      -0.89       0.19
      5.54      -0.98       0.34
      5.45      -0.82       0.19
      5.18      -1.10       0.16
      5.58      -0.65       0.46
      5.57      -0.85       0.31
      5.54      -1.09       0.37
      5.35      -0.89       0.10
      5.66      -1.04       0.33
      5.46      -0.91       0.18
      5.36      -0.78       0.14
      5.73      -0.79       0.32
      5.62      -0.83       0.15
      5.36      -1.05       0.20
      5.69      -0.65       0.41
      5.71      -0.87       0.26
      5.66      -1.02       0.42
      5.27      -0.89       0.14
      5.76      -0.97       0.29
      5.88      -0.56       0.13
      6.04      -0.53       0.00
      6.81      -0.15       0.17
      6.81      -0.28      -0.02
      6.76      -0.33       0.10
      7.02      -0.10       0.13
      7.04      -0.31       0.02
      6.98      -0.27       0.24
      6.71      -0.08      -0.03
      7.11      -0.18       0.10
      6.99       0.05      -0.03
      6.78      -0.21      -0.09
      7.21       0.16       0.18
      7.11      -0.07       0.04
      7.03      -0.27       0.13
      6.94      -0.09      -0.04
      7.05      -0.32       0.11
      6.71      -0.34       0.07
      6.36      -0.29       0.03
      6.48      -0.50       0.23
      6.18      -0.58       0.09
      5.60      -0.99       0.15
      5.76      -0.63       0.46
      5.62      -0.93       0.32
      5.45      -1.21       0.43
      5.11      -1.05       0.16
      7.00      -0.28       0.11
      7.07       0.07      -0.07
      6.94       0.04      -0.14
      7.36       0.15       0.06
      7.19       0.01      -0.10
      6.99      -0.15      -0.00
      7.26       0.13       0.11
      7.26      -0.11      -0.03
      7.19      -0.15       0.23
      6.86       0.03      -0.07
      7.24      -0.10       0.05
      7.08       0.20      -0.07
      6.90      -0.05      -0.15
      7.37       0.25       0.09
      7.20      -0.00      -0.05
      7.10      -0.15       0.06
      7.16       0.05      -0.02
      7.28      -0.14       0.00
      7.13      -0.09       0.07
      6.92       0.08      -0.09
      7.28      -0.01       0.06
      7.18       0.11      -0.09
      6.87      -0.18      -0.10
      7.25       0.28       0.20
      7.24       0.07       0.06
      7.21      -0.19       0.11
      6.98       0.01      -0.17
      7.30      -0.14       0.07
      7.08      -0.00      -0.08
      6.95       0.08      -0.12
      7.33       0.09       0.07
      7.21       0.04      -0.10
      6.94      -0.18      -0.04
      7.24       0.18       0.16
      7.25      -0.04       0.00
      7.20      -0.16       0.19
      6.89       0.02      -0.10
      7.26      -0.11       0.05
      7.07       0.16      -0.07
      6.92      -0.01      -0.16
      7.40       0.23       0.06
      7.18      -0.03      -0.10
      7.06      -0.13       0.04
      7.24       0.07       0.05
      7.27      -0.14      -0.03
      7.16      -0.12       0.16
      6.89       0.06      -0.08
      7.26      -0.05       0.06
      7.14       0.15      -0.08
      6.89      -0.12      -0.13
      7.30       0.27       0.15
      7.22       0.04       0.01
      7.16      -0.17       0.09
      7.05       0.02      -0.11
      7.30      -0.14       0.05
      7.09      -0.05      -0.04
      6.96       0.11      -0.10
      7.30       0.03       0.07
      7.22       0.07      -0.10
      6.89      -0.21      -0.07
      7.23       0.24       0.20
      7.25       0.03       0.04
      7.20      -0.18       0.15
      6.93       0.01      -0.13
      7.27      -0.12       0.06
      7.07       0.09      -0.07
      6.93       0.03      -0.14
      7.37       0.17       0.06
      7.19      -0.00      -0.10
      7.01      -0.14       0.01
      7.26       0.11       0.10
      7.26      -0.12      -0.04
      7.19      -0.14       0.24
      6.85       0.03      -0.07
      7.24      -0.09       0.05
      7.09       0.19      -0.07
      6.90      -0.07      -0.15
      7.35       0.26       0.10
      7.20       0.01      -0.04
      7.11      -0.15       0.06
      7.14       0.04      -0.04
      7.28      -0.14       0.01
      7.12      -0.08       0.05
      6.93       0.09      -0.09
      7.28      -0.00       0.06
      7.19       0.10      -0.09
      6.87      -0.19      -0.10
      7.23       0.28       0.21
      7.25       0.08       0.07
      7.21      -0.19       0.11
      6.97       0.01      -0.16
      7.29      -0.13       0.07
      7.08       0.02      -0.08
      6.95       0.07      -0.12
      7.34       0.11       0.07
      7.21       0.03      -0.10
      6.95      -0.17      -0.03
      7.25       0.17       0.14
      7.25      -0.06      -0.01
      7.20      -0.16       0.20
      6.89       0.02      -0.10
      7.25      -0.11       0.05
      7.42      -0.30       0.23
      7.23      -0.16       0.01
      7.53       0.16      -0.10
      7.47      -0.08       0.28
      7.07      -0.15      -0.12
      7.56       0.20       0.00
      7.47       0.22      -0.09
      7.38      -0.18       0.10
      5.47      -1.25       0.18
      5.48      -0.89       0.17
      5.47      -1.31       0.50
      5.14      -1.21       0.38
      5.61      -0.95       0.26
      5.50      -1.06       0.54
      5.38      -1.14       0.16
      5.67      -0.89       0.19
      5.55      -0.66       0.12
      5.50      -1.33       0.49
      5.48      -1.23       0.22
      5.61      -0.84       0.17
      5.62      -1.26       0.55
      5.08      -1.22       0.31
      5.69      -0.87       0.36
      5.51      -0.98       0.43
      5.70      -1.01       0.21
      5.75      -0.91       0.04
      5.61      -0.45       0.05
      5.64      -1.31       0.53
      5.52      -1.15       0.25
      5.74      -0.80       0.16
      5.74      -1.11       0.56
      5.26      -1.13       0.20
      5.83      -0.77       0.31
      5.69      -0.80       0.25
      5.63      -1.13       0.32
      5.68      -1.10       0.12
      5.88      -0.60       0.08
      6.18      -0.99       0.41
      6.26      -0.68       0.23
      6.90      -0.28       0.03
      6.94      -0.34       0.38
      6.72      -0.42      -0.07
      7.14      -0.09       0.03
      7.10       0.05      -0.08
      7.04      -0.47       0.22
      7.11      -0.38      -0.03
      7.22       0.01      -0.07
      7.23      -0.41       0.29
      6.80      -0.34       0.10
      7.32      -0.04       0.08
      7.15      -0.16       0.25
      7.18      -0.23      -0.04
      7.19      -0.15      -0.11
      6.83       0.10      -0.10
      6.56      -0.88       0.40
      6.23      -0.89       0.13
      6.14      -0.65       0.11
      5.89      -1.19       0.55
      5.10      -1.29       0.26
      5.57      -1.00       0.39
      5.29      -1.13       0.38
      5.33      -1.32       0.32
      5.36      -1.26       0.13
      7.43       0.41      -0.20
      7.42      -0.29       0.22
      7.21      -0.15       0.03
      7.53       0.15      -0.10
      7.47      -0.06       0.28
      7.09      -0.15      -0.13
      7.56       0.20      -0.01
      7.48       0.23      -0.11
      7.37      -0.19       0.11
      7.44      -0.16      -0.11
      7.46       0.21      -0.14
      7.44      -0.22       0.20
      7.07      -0.14       0.07
      7.53       0.13      -0.04
      7.41       0.01       0.23
      7.30      -0.08      -0.13
      7.57       0.16      -0.13