# vtk DataFile Version 3.0
Low resolution, disturbed wind of XY Slice at time = 481.25 seconds.
ASCII
DATASET STRUCTURED_POINTS
DIMENSIONS   164    49     1
ORIGIN     -88.00    -251.00      90.00
SPACING      12.03      10.10      10.00
POINT_DATA            8036
VECTORS Velocity float
      8.48       0.08       0.13
      7.90       0.45      -0.35
      7.81       0.10       0.20
      8.18      -0.01       0.12
      8.04      -0.14      -0.18
      7.80       0.06      -0.44
      7.84      -0.13       0.13
      8.40      -0.17       0.20
      7.60       0.31      -0.32
      8.06      -0.54       0.62
      8.57       0.07      -0.01
      7.90       0.34      -0.29
      7.65       0.16       0.05
      7.94      -0.02       0.17
      8.14      -0.23      -0.10
      7.75       0.16      -0.32
      7.90      -0.28       0.20
      8.40      -0.04       0.23
      7.79       0.44      -0.37
      8.03      -0.25       0.38
      8.46       0.00       0.06
      8.03       0.19      -0.24
      7.61      -0.12      -0.31
      7.71      -0.05       0.22
      8.40      -0.16       0.02
      7.56       0.20      -0.12
      7.95      -0.44       0.34
      8.43       0.09       0.20
      7.92       0.49      -0.37
      7.91       0.00       0.22
      8.28      -0.02       0.11
      8.05      -0.03      -0.20
      7.73      -0.04      -0.43
      7.78      -0.11       0.16
      8.41      -0.16       0.14
      7.59       0.27      -0.26
      8.03      -0.51       0.54
      8.54       0.08       0.04
      7.88       0.39      -0.32
      7.69       0.22       0.17
      8.05      -0.00       0.15
      8.03      -0.27      -0.16
      7.84       0.14      -0.42
      7.89      -0.20       0.15
      8.40      -0.11       0.23
      7.70       0.38      -0.35
      8.04      -0.38       0.49
      8.51       0.03       0.03
      7.98       0.25      -0.26
      7.63       0.00      -0.15
      7.81      -0.03       0.19
      8.29      -0.19      -0.03
      7.64       0.18      -0.20
      7.93      -0.38       0.27
      8.40       0.06       0.24
      7.91       0.51      -0.39
      8.01      -0.09       0.25
      8.38      -0.03       0.09
      8.07       0.09      -0.21
      7.65      -0.13      -0.42
      7.72      -0.08       0.20
      8.41      -0.16       0.09
      7.57       0.24      -0.20
      7.99      -0.48       0.45
      8.49       0.08       0.11
      7.90       0.44      -0.34
      7.79       0.12       0.20
      8.15      -0.01       0.13
      8.03      -0.17      -0.18
      7.82       0.08      -0.45
      7.85      -0.14       0.12
      8.40      -0.17       0.21
      7.61       0.32      -0.33
      8.06      -0.51       0.59
      8.56       0.06      -0.00
      7.92       0.32      -0.29
      7.65       0.13       0.01
      7.92      -0.02       0.17
      8.17      -0.22      -0.09
      7.73       0.16      -0.30
      7.91      -0.30       0.22
      8.40      -0.02       0.24
      7.82       0.45      -0.37
      8.02      -0.22       0.35
      8.44      -0.01       0.06
      8.05       0.17      -0.23
      7.60      -0.15      -0.35
      7.68      -0.05       0.22
      8.41      -0.15       0.03
      7.56       0.21      -0.14
      7.96      -0.45       0.36
      8.44       0.09       0.19
      7.91       0.48      -0.37
      7.89       0.03       0.22
      8.25      -0.02       0.11
      8.05      -0.06      -0.19
      7.75      -0.01      -0.43
      7.79      -0.11       0.16
      8.41      -0.17       0.16
      7.59       0.28      -0.27
      8.04      -0.52       0.56
      8.56       0.08       0.02
      7.88       0.38      -0.31
      7.67       0.24       0.17
      8.02      -0.00       0.15
      8.06      -0.26      -0.14
      7.82       0.15      -0.39
      7.89      -0.22       0.16
      8.40      -0.09       0.23
      7.72       0.39      -0.35
      8.04      -0.35       0.46
      8.49       0.02       0.03
      7.99       0.24      -0.26
      7.62      -0.03      -0.19
      7.78      -0.04       0.20
      8.32      -0.18      -0.02
      7.61       0.18      -0.18
      7.93      -0.40       0.28
      8.40       0.07       0.24
      7.93       0.53      -0.39
      7.98      -0.07       0.24
      8.36      -0.03       0.09
      8.07       0.06      -0.21
      7.67      -0.11      -0.42
      7.74      -0.08       0.19
      8.41      -0.16       0.10
      7.58       0.25      -0.21
      8.00      -0.49       0.47
      8.50       0.08       0.09
      7.89       0.43      -0.34
      7.76       0.15       0.19
      8.12      -0.01       0.13
      8.03      -0.20      -0.17
      7.84       0.10      -0.45
      7.87      -0.15       0.12
      8.40      -0.17       0.22
      7.63       0.33      -0.33
      8.06      -0.48       0.56
      8.54       0.05       0.00
      7.93       0.30      -0.28
      7.64       0.10      -0.03
      7.89      -0.02       0.18
      8.20      -0.22      -0.08
      7.70       0.17      -0.27
      7.91      -0.32       0.23
      8.40       0.00       0.24
      7.84       0.47      -0.37
      8.02      -0.19       0.33
      8.43      -0.01       0.07
      8.06       0.16      -0.23
      7.59      -0.18      -0.40
      7.68      -0.05       0.22
      8.41      -0.16       0.05
      7.56       0.21      -0.15
      7.97      -0.46       0.38
      8.45       0.09       0.17
      7.91       0.47      -0.36
      7.86       0.05       0.21
      8.23      -0.02       0.12
      8.04      -0.09      -0.19
      7.77       0.01      -0.44
      7.81      -0.12       0.15
      8.41      -0.17       0.17
      7.60       0.29      -0.29
      8.19       0.05       0.19
      7.80      -0.26      -0.07
      7.92      -0.05       0.07
      8.05       0.27       0.17
      8.21      -0.10       0.04
      8.05      -0.11      -0.10
      7.82       0.14      -0.22
      8.19      -0.07       0.13
      7.83      -0.03       0.09
      7.91       0.04      -0.26
      8.21       0.12       0.13
      7.87      -0.29      -0.13
      7.94      -0.13       0.16
      8.04       0.38       0.03
      8.19      -0.07       0.09
      8.00      -0.02      -0.07
      7.76       0.14      -0.24
      8.18      -0.03       0.19
      7.80      -0.13       0.04
      7.93       0.03      -0.17
      8.09       0.05       0.25
      8.14      -0.19      -0.09
      8.03      -0.17      -0.01
      7.97       0.30      -0.12
      8.18      -0.07       0.09
      7.90       0.09       0.00
      7.75       0.17      -0.24
      8.17       0.01       0.22
      7.79      -0.23      -0.04
      7.93      -0.01      -0.03
      8.05       0.15       0.23
      8.22      -0.12      -0.00
      8.06      -0.14      -0.08
      7.87       0.19      -0.19
      8.19      -0.07       0.12
      7.85       0.01       0.06
      7.86       0.08      -0.25
      8.21       0.10       0.14
      7.81      -0.30      -0.12
      7.91      -0.11       0.19
      8.06       0.41       0.09
      8.20      -0.07       0.10
      8.04      -0.07      -0.11
      7.78       0.12      -0.23
      8.18      -0.05       0.16
      7.81      -0.09       0.07
      7.92       0.04      -0.21
      8.15       0.08       0.20
      8.02      -0.23      -0.10
      7.99      -0.15       0.07
      8.00       0.34      -0.06
      8.19      -0.07       0.09
      7.94       0.05      -0.03
      7.74       0.17      -0.24
      8.17      -0.01       0.22
      7.79      -0.19       0.00
      7.93       0.03      -0.12
      8.04       0.04       0.29
      8.23      -0.14      -0.05
      8.06      -0.16      -0.06
      7.92       0.24      -0.17
      8.18      -0.07       0.11
      7.88       0.05       0.04
      7.81       0.12      -0.25
      8.19       0.06       0.18
      7.80      -0.27      -0.08
      7.92      -0.06       0.09
      8.06       0.30       0.15
      8.21      -0.09       0.06
      8.05      -0.11      -0.11
      7.81       0.13      -0.22
      8.19      -0.06       0.14
      7.83      -0.04       0.09
      7.92       0.04      -0.25
      8.20       0.11       0.15
      7.90      -0.28      -0.12
      7.95      -0.13       0.14
      8.03       0.37       0.01
      8.19      -0.07       0.09
      7.99      -0.00      -0.07
      7.76       0.15      -0.24
      8.17      -0.03       0.20
      7.80      -0.14       0.03
      7.93       0.03      -0.16
      8.08       0.04       0.26
      8.17      -0.17      -0.08
      8.04      -0.17      -0.03
      7.97       0.29      -0.14
      8.18      -0.07       0.09
      7.90       0.08       0.01
      7.76       0.16      -0.24
      8.18       0.02       0.21
      7.80      -0.23      -0.04
      7.93      -0.02      -0.00
      8.05       0.18       0.21
      8.22      -0.11       0.01
      8.05      -0.13      -0.09
      7.86       0.18      -0.20
      8.19      -0.07       0.12
      7.85      -0.00       0.07
      7.88       0.07      -0.25
      8.22       0.11       0.14
      7.82      -0.30      -0.13
      7.91      -0.12       0.21
      8.06       0.41       0.08
      8.20      -0.07       0.10
      8.03      -0.06      -0.10
      7.78       0.13      -0.24
      8.18      -0.05       0.17
      7.81      -0.10       0.06
      7.92       0.04      -0.20
      8.13       0.07       0.21
      8.05      -0.22      -0.10
      8.00      -0.16       0.05
      7.99       0.32      -0.07
      8.18      -0.07       0.09
      7.93       0.06      -0.02
      7.74       0.17      -0.24
      8.16      -0.01       0.23
      7.79      -0.20      -0.01
      7.93       0.02      -0.10
      8.04       0.07       0.27
      8.23      -0.13      -0.04
      8.06      -0.15      -0.07
      7.91       0.22      -0.17
      8.18      -0.07       0.11
      7.87       0.04       0.04
      7.83       0.11      -0.25
      8.20       0.07       0.17
      7.81      -0.27      -0.09
      7.92      -0.07       0.12
      8.06       0.33       0.14
      8.21      -0.09       0.07
      8.05      -0.10      -0.12
      7.80       0.11      -0.23
      8.19      -0.06       0.14
      7.82      -0.05       0.09
      7.92       0.04      -0.24
      8.18       0.11       0.16
      7.93      -0.27      -0.12
      7.96      -0.14       0.12
      8.02       0.36      -0.01
      8.19      -0.07       0.09
      7.97       0.01      -0.06
      7.76       0.15      -0.24
      8.17      -0.03       0.20
      7.80      -0.16       0.02
      7.93       0.03      -0.15
      8.07       0.03       0.28
      8.20      -0.16      -0.08
      8.05      -0.18      -0.04
      7.96       0.27      -0.15
      8.18      -0.07       0.10
      7.89       0.07       0.02
      7.77       0.15      -0.24
      8.18       0.03       0.20
      7.80      -0.24      -0.05
      7.92      -0.03       0.02
      8.05       0.21       0.20
      8.22      -0.11       0.02
      8.05      -0.12      -0.09
      7.84       0.16      -0.21
      8.19      -0.07       0.13
      7.84      -0.01       0.08
      7.86      -0.27      -0.37
      7.91      -0.07       0.38
      8.26       0.08       0.08
      8.08      -0.14      -0.01
      7.68       0.12       0.11
      8.27      -0.11       0.06
      8.11       0.15      -0.18
      7.60      -0.07      -0.26
      8.00       0.09       0.27
      7.99       0.19      -0.20
      8.03      -0.34      -0.27
      8.00      -0.07       0.24
      8.31       0.16       0.17
      8.15       0.00       0.04
      7.58       0.16       0.03
      8.24      -0.10       0.08
      8.09       0.14      -0.11
      7.67      -0.16      -0.36
      7.88       0.01       0.41
      8.13       0.02      -0.11
      7.98      -0.27      -0.18
      7.93       0.00       0.12
      8.36       0.05       0.14
      8.13       0.20      -0.04
      7.57       0.17      -0.16
      8.24      -0.02       0.15
      8.07       0.16       0.00
      7.78      -0.24      -0.42
      7.85      -0.06       0.45
      8.23       0.00       0.01
      8.02      -0.18      -0.07
      7.78       0.08       0.09
      8.31      -0.06       0.09
      8.11       0.17      -0.14
      7.59       0.01      -0.23
      8.07       0.05       0.23
      8.01       0.18      -0.14
      7.97      -0.32      -0.31
      7.98      -0.08       0.30
      8.29       0.17       0.16
      8.15      -0.08       0.07
      7.58       0.16       0.11
      8.24      -0.14       0.05
      8.10       0.13      -0.17
      7.64      -0.13      -0.31
      7.93       0.05       0.35
      8.07       0.09      -0.15
      8.00      -0.30      -0.22
      7.96      -0.03       0.17
      8.33       0.10       0.15
      8.14       0.11      -0.01
      7.58       0.17      -0.07
      8.24      -0.06       0.12
      8.08       0.15      -0.02
      7.71      -0.20      -0.42
      7.82      -0.04       0.48
      8.21      -0.07      -0.06
      7.96      -0.23      -0.13
      7.87       0.05       0.08
      8.34      -0.01       0.11
      8.12       0.20      -0.10
      7.58       0.08      -0.20
      8.14       0.02       0.20
      8.04       0.17      -0.08
      7.88      -0.28      -0.36
      7.93      -0.07       0.36
      8.26       0.10       0.09
      8.10      -0.12       0.01
      7.66       0.13       0.11
      8.26      -0.12       0.05
      8.10       0.14      -0.19
      7.60      -0.09      -0.26
      7.98       0.09       0.28
      8.01       0.17      -0.19
      8.02      -0.33      -0.26
      7.99      -0.07       0.22
      8.31       0.15       0.17
      8.15       0.03       0.03
      7.58       0.17       0.01
      8.24      -0.09       0.09
      8.09       0.15      -0.09
      7.68      -0.17      -0.37
      7.87      -0.00       0.42
      8.15      -0.00      -0.10
      7.97      -0.26      -0.17
      7.93       0.01       0.10
      8.36       0.03       0.14
      8.12       0.22      -0.05
      7.57       0.16      -0.17
      8.22      -0.01       0.16
      8.06       0.16      -0.01
      7.80      -0.25      -0.41
      7.87      -0.06       0.43
      8.24       0.02       0.03
      8.04      -0.17      -0.05
      7.75       0.09       0.10
      8.30      -0.07       0.08
      8.11       0.17      -0.15
      7.60      -0.01      -0.23
      8.05       0.06       0.24
      8.01       0.18      -0.16
      7.99      -0.33      -0.30
      8.00      -0.09       0.28
      8.29       0.19       0.18
      8.16      -0.06       0.06
      7.58       0.16       0.09
      8.24      -0.13       0.06
      8.09       0.14      -0.16
      7.64      -0.14      -0.32
      7.92       0.04       0.36
      8.08       0.07      -0.14
      7.99      -0.29      -0.21
      7.96      -0.02       0.16
      8.34       0.08       0.15
      8.13       0.13      -0.02
      7.58       0.17      -0.10
      8.24      -0.05       0.12
      8.08       0.16      -0.01
      7.72      -0.21      -0.44
      7.81      -0.05       0.50
      8.22      -0.06      -0.04
      7.98      -0.22      -0.11
      7.84       0.06       0.08
      8.33      -0.03       0.11
      8.12       0.19      -0.11
      7.59       0.06      -0.21
      8.13       0.03       0.21
      8.03       0.17      -0.09
      7.91      -0.29      -0.35
      7.94      -0.08       0.35
      8.27       0.12       0.11
      8.11      -0.11       0.02
      7.64       0.14       0.12
      8.25      -0.13       0.05
      8.10       0.13      -0.21
      7.61      -0.11      -0.27
      7.97       0.08       0.30
      8.02       0.15      -0.18
      8.01      -0.32      -0.25
      7.98      -0.06       0.21
      8.32       0.13       0.16
      8.14       0.05       0.02
      7.58       0.17      -0.01
      8.24      -0.08       0.09
      8.08       0.15      -0.07
      7.69      -0.18      -0.39
      7.86      -0.01       0.44
      8.16      -0.02      -0.09
      7.96      -0.25      -0.16
      7.92       0.02       0.09
      8.37       0.02       0.13
      8.12       0.22      -0.06
      7.58       0.14      -0.18
      8.20      -0.00       0.17
      8.05       0.17      -0.03
      7.82      -0.26      -0.40
      7.88      -0.06       0.41
      8.24       0.04       0.04
      8.05      -0.16      -0.04
      7.73       0.10       0.10
      8.29      -0.08       0.07
      8.11       0.16      -0.16
      7.60      -0.03      -0.24
      8.03       0.07       0.25
      8.02      -0.27      -0.16
      7.89       0.07       0.34
      7.68       0.17       0.07
      8.28      -0.07      -0.22
      8.13      -0.05      -0.14
      7.75       0.21       0.03
      8.21      -0.26       0.02
      7.99      -0.01      -0.19
      8.02       0.18       0.12
      7.90       0.04       0.06
      8.12      -0.33      -0.12
      8.00       0.09       0.32
      7.69       0.28       0.02
      8.24      -0.05      -0.07
      8.12      -0.04      -0.22
      7.77       0.22       0.11
      8.20      -0.26       0.03
      7.97      -0.11      -0.19
      7.90       0.09       0.23
      7.78       0.03       0.10
      8.26      -0.17      -0.27
      8.08       0.00       0.09
      7.78       0.26      -0.03
      8.20      -0.05       0.10
      8.07       0.01      -0.25
      7.84       0.25       0.19
      8.16      -0.18       0.06
      7.98      -0.22      -0.18
      7.84       0.05       0.33
      7.70       0.10       0.09
      8.30      -0.08      -0.27
      8.12      -0.04      -0.08
      7.77       0.23       0.01
      8.20      -0.19       0.06
      8.01      -0.00      -0.21
      7.97       0.20       0.14
      7.98      -0.03       0.06
      8.07      -0.32      -0.12
      7.96       0.10       0.37
      7.67       0.26       0.04
      8.25      -0.06      -0.15
      8.14      -0.06      -0.20
      7.74       0.20       0.07
      8.20      -0.29       0.01
      7.97      -0.06      -0.19
      7.97       0.13       0.18
      7.83       0.04       0.08
      8.20      -0.24      -0.20
      8.05       0.04       0.19
      7.74       0.27      -0.01
      8.22      -0.05       0.03
      8.09      -0.01      -0.24
      7.81       0.24       0.16
      8.19      -0.22       0.05
      7.96      -0.18      -0.19
      7.82       0.04       0.30
      7.71       0.03       0.12
      8.32      -0.09      -0.32
      8.12      -0.03      -0.02
      7.79       0.24      -0.02
      8.20      -0.12       0.10
      8.04       0.00      -0.23
      7.91       0.22       0.16
      8.06      -0.10       0.06
      8.03      -0.28      -0.15
      7.91       0.07       0.35
      7.68       0.19       0.06
      8.28      -0.07      -0.20
      8.13      -0.05      -0.15
      7.74       0.21       0.04
      8.21      -0.28       0.01
      7.98      -0.01      -0.19
      8.03       0.17       0.12
      7.89       0.04       0.06
      8.13      -0.31      -0.14
      8.01       0.08       0.30
      7.70       0.27       0.01
      8.24      -0.05      -0.05
      8.11      -0.03      -0.22
      7.78       0.22       0.12
      8.20      -0.26       0.03
      7.96      -0.12      -0.19
      7.88       0.08       0.25
      7.76       0.03       0.10
      8.28      -0.15      -0.29
      8.09      -0.01       0.06
      7.79       0.26      -0.03
      8.20      -0.05       0.12
      8.06       0.01      -0.25
      7.85       0.24       0.18
      8.14      -0.16       0.06
      7.99      -0.23      -0.17
      7.86       0.05       0.33
      7.69       0.12       0.09
      8.30      -0.08      -0.26
      8.13      -0.04      -0.09
      7.76       0.22       0.01
      8.20      -0.21       0.05
      8.01      -0.01      -0.21
      7.98       0.19       0.14
      7.96      -0.01       0.06
      8.08      -0.33      -0.12
      7.97       0.10       0.37
      7.66       0.28       0.03
      8.25      -0.05      -0.13
      8.13      -0.05      -0.21
      7.75       0.21       0.08
      8.20      -0.29       0.02
      7.97      -0.07      -0.19
      7.95       0.12       0.19
      7.82       0.03       0.08
      8.21      -0.22      -0.22
      8.06       0.03       0.17
      7.75       0.26      -0.01
      8.22      -0.05       0.05
      8.08      -0.01      -0.24
      7.81       0.24       0.17
      8.19      -0.22       0.06
      7.96      -0.19      -0.19
      7.81       0.03       0.32
      7.70       0.05       0.11
      8.32      -0.09      -0.31
      8.12      -0.04      -0.04
      7.78       0.24      -0.02
      8.20      -0.13       0.09
      8.03       0.00      -0.22
      7.92       0.22       0.16
      8.04      -0.08       0.06
      8.04      -0.29      -0.14
      7.92       0.08       0.35
      7.68       0.21       0.06
      8.27      -0.06      -0.19
      8.14      -0.06      -0.17
      7.74       0.20       0.05
      8.21      -0.30       0.00
      7.98      -0.02      -0.18
      8.01       0.16       0.13
      7.87       0.04       0.07
      8.15      -0.30      -0.16
      8.02       0.07       0.27
      7.71       0.27       0.01
      8.23      -0.05      -0.03
      8.10      -0.03      -0.22
      7.78       0.23       0.13
      8.19      -0.25       0.04
      7.96      -0.14      -0.19
      7.87       0.07       0.26
      7.75       0.03       0.10
      8.30      -0.13      -0.30
      8.10      -0.02       0.04
      7.80       0.25      -0.04
      8.20      -0.06       0.13
      8.06       0.01      -0.24
      7.87       0.24       0.18
      8.12      -0.15       0.06
      8.00      -0.24      -0.17
      7.87       0.06       0.34
      7.69       0.14       0.08
      8.29      -0.08      -0.24
      8.13      -0.05      -0.11
      7.76       0.22       0.02
      8.21      -0.23       0.04
      8.00      -0.01      -0.20
      7.99       0.19       0.13
      8.10       0.04       0.14
      7.95       0.11      -0.34
      7.95      -0.26      -0.19
      8.14      -0.06       0.22
      7.73       0.27      -0.04
      7.84      -0.32       0.07
      8.39      -0.05       0.04
      8.03       0.08       0.13
      7.81       0.17       0.02
      8.12      -0.05      -0.06
      8.04       0.10       0.18
      7.88       0.09      -0.32
      7.83      -0.24      -0.17
      8.24      -0.05       0.25
      7.81       0.26      -0.05
      7.79      -0.17       0.06
      8.37      -0.02      -0.02
      8.09       0.03       0.13
      7.92       0.15      -0.18
      8.08      -0.20      -0.13
      8.04      -0.01       0.21
      7.77       0.15      -0.13
      7.75      -0.22      -0.04
      8.32      -0.01       0.31
      7.98       0.14      -0.07
      7.67       0.12       0.01
      8.30       0.02      -0.02
      8.13       0.00       0.12
      7.97       0.12      -0.33
      8.01      -0.27      -0.18
      8.09      -0.06       0.22
      7.73       0.23      -0.05
      7.80      -0.28       0.04
      8.37      -0.03       0.14
      8.02       0.10       0.06
      7.77       0.16       0.02
      8.17      -0.03      -0.05
      8.06       0.08       0.16
      7.92       0.09      -0.35
      7.87      -0.24      -0.20
      8.21      -0.06       0.22
      7.74       0.31      -0.04
      7.86      -0.30       0.09
      8.39      -0.04      -0.02
      8.06       0.05       0.15
      7.87       0.16      -0.08
      8.10      -0.13      -0.10
      8.04       0.04       0.20
      7.82       0.12      -0.21
      7.78      -0.23      -0.10
      8.29      -0.03       0.28
      7.90       0.19      -0.06
      7.72       0.00       0.04
      8.34       0.01      -0.02
      8.13      -0.01       0.12
      7.98       0.14      -0.31
      8.07      -0.28      -0.18
      8.05      -0.07       0.22
      7.72       0.19      -0.06
      7.75      -0.24       0.01
      8.35      -0.02       0.23
      8.00       0.11      -0.00
      7.72       0.14       0.02
      8.23      -0.01      -0.04
      8.09       0.05       0.15
      7.94       0.10      -0.34
      7.93      -0.25      -0.19
      8.16      -0.06       0.22
      7.73       0.29      -0.04
      7.85      -0.33       0.08
      8.40      -0.05       0.02
      8.03       0.08       0.14
      7.82       0.18       0.02
      8.11      -0.07      -0.07
      8.04       0.09       0.18
      7.87       0.10      -0.29
      7.82      -0.23      -0.15
      8.25      -0.04       0.25
      7.83       0.25      -0.05
      7.78      -0.13       0.06
      8.36      -0.01      -0.02
      8.10       0.02       0.13
      7.93       0.15      -0.21
      8.08      -0.21      -0.14
      8.04      -0.03       0.21
      7.75       0.15      -0.11
      7.74      -0.22      -0.03
      8.33      -0.01       0.31
      7.99       0.13      -0.07
      7.68       0.13       0.02
      8.29       0.02      -0.02
      8.12       0.01       0.13
      7.97       0.12      -0.34
      7.99      -0.26      -0.19
      8.11      -0.06       0.22
      7.73       0.24      -0.05
      7.81      -0.29       0.05
      8.38      -0.04       0.11
      8.02       0.09       0.08
      7.78       0.16       0.02
      8.16      -0.04      -0.05
      8.05       0.09       0.17
      7.91       0.08      -0.35
      7.86      -0.24      -0.20
      8.22      -0.06       0.23
      7.76       0.30      -0.04
      7.84      -0.27       0.08
      8.38      -0.04      -0.02
      8.07       0.05       0.14
      7.88       0.16      -0.11
      8.09      -0.15      -0.11
      8.04       0.02       0.20
      7.80       0.13      -0.19
      7.77      -0.22      -0.08
      8.29      -0.02       0.29
      7.92       0.18      -0.06
      7.70       0.04       0.03
      8.33       0.02      -0.02
      8.14      -0.01       0.12
      7.99       0.13      -0.33
      8.05      -0.27      -0.18
      8.06      -0.06       0.22
      7.72       0.20      -0.06
      7.76      -0.25       0.02
      8.36      -0.02       0.21
      8.00       0.11       0.02
      7.74       0.15       0.02
      8.22      -0.01      -0.04
      8.08       0.06       0.15
      7.94       0.10      -0.35
      7.92      -0.25      -0.20
      8.17      -0.06       0.22
      7.73       0.30      -0.04
      7.86      -0.34       0.09
      8.40      -0.06      -0.01
      8.04       0.07       0.15
      7.84       0.17      -0.01
      8.11      -0.09      -0.08
      8.04       0.07       0.19
      7.85       0.10      -0.27
      7.81      -0.23      -0.14
      8.26      -0.04       0.26
      7.85       0.23      -0.05
      7.76      -0.10       0.05
      8.36      -0.00      -0.02
      8.11       0.01       0.13
      7.94       0.14      -0.23
      8.08      -0.23      -0.15
      8.04      -0.04       0.22
      7.74       0.16      -0.09
      7.73      -0.22      -0.02
      8.34      -0.01       0.30
      7.99       0.12      -0.05
      7.69       0.13       0.02
      8.27       0.01      -0.03
      8.12       0.02       0.13
      7.96       0.11      -0.34
      7.98      -0.26      -0.19
      8.12      -0.06       0.22
      7.73       0.25      -0.05
      7.82      -0.30       0.05
      8.38      -0.04       0.09
      8.02       0.09       0.10
      7.79       0.17       0.02
      7.89      -0.38       0.17
      7.97       0.16       0.09
      7.97       0.24      -0.27
      7.98      -0.32       0.24
      7.86       0.11       0.05
      8.21       0.38      -0.24
      8.22      -0.18      -0.09
      7.82      -0.05       0.23
      8.18       0.03       0.15
      7.96      -0.12      -0.24
      7.78      -0.43       0.24
      7.93       0.14       0.00
      8.06       0.46      -0.31
      8.09      -0.27       0.10
      7.78       0.06       0.06
      8.21       0.27      -0.19
      8.09      -0.07      -0.09
      7.91      -0.20       0.18
      8.08       0.12       0.18
      7.91      -0.05      -0.22
      7.85      -0.43       0.29
      7.96       0.15       0.10
      8.14       0.52      -0.30
      8.23      -0.31      -0.14
      7.72      -0.01       0.17
      8.20       0.18      -0.12
      7.94       0.03      -0.13
      7.95      -0.35       0.14
      7.99       0.17       0.15
      7.92       0.12      -0.24
      7.93      -0.37       0.27
      7.91       0.13       0.08
      8.19       0.44      -0.26
      8.23      -0.23      -0.12
      7.79      -0.04       0.21
      8.19       0.07       0.07
      7.96      -0.08      -0.21
      7.82      -0.41       0.21
      7.94       0.14       0.02
      8.02       0.40      -0.30
      8.03      -0.26       0.21
      7.81       0.09       0.02
      8.22       0.32      -0.21
      8.17      -0.12      -0.08
      7.87      -0.12       0.21
      8.13       0.07       0.17
      7.93      -0.08      -0.23
      7.82      -0.43       0.27
      7.95       0.15       0.06
      8.11       0.49      -0.30
      8.17      -0.29      -0.03
      7.75       0.02       0.12
      8.21       0.22      -0.15
      7.99       0.00      -0.11
      7.96      -0.30       0.14
      8.02       0.18       0.19
      7.88      -0.01      -0.21
      7.88      -0.42       0.30
      7.95       0.15       0.12
      8.18       0.49      -0.28
      8.24      -0.27      -0.15
      7.76      -0.03       0.20
      8.19       0.12      -0.01
      7.95      -0.03      -0.17
      7.88      -0.39       0.18
      7.96       0.16       0.07
      7.98       0.27      -0.27
      7.99      -0.31       0.24
      7.83       0.11       0.04
      8.19       0.36      -0.23
      8.20      -0.18      -0.08
      7.80      -0.06       0.24
      8.15       0.01       0.17
      7.93      -0.12      -0.23
      7.76      -0.44       0.25
      7.91       0.13       0.02
      8.04       0.45      -0.30
      8.08      -0.28       0.08
      7.74       0.04       0.08
      8.18       0.25      -0.17