# vtk DataFile Version 3.0
High resolution disturbed wind for time = 459.25 seconds.
ASCII
DATASET STRUCTURED_POINTS
DIMENSIONS    38    30    31
ORIGIN     -75.97     -79.28      11.00
SPACING       4.01       5.05       5.00
POINT_DATA           35340
VECTORS Velocity float
      5.13       0.18       0.00
      5.32      -0.11       0.25
      5.45      -0.38       0.19
      5.44      -0.39      -0.13
      5.17      -0.29      -0.18
      5.28       0.10       0.02
      5.30       0.26      -0.25
      5.25       0.25       0.05
      5.01      -0.01       0.09
      5.16       0.35      -0.03
      5.15       0.25       0.01
      5.32      -0.11       0.20
      5.42      -0.42       0.20
      5.53      -0.33      -0.14
      5.13      -0.34      -0.16
      5.28       0.12       0.05
      5.32       0.25      -0.29
      5.28       0.29       0.04
      4.98      -0.06       0.12
      5.11       0.33      -0.03
      5.17       0.31       0.02
      5.31      -0.12       0.16
      5.39      -0.46       0.22
      5.62      -0.28      -0.16
      5.09      -0.39      -0.14
      5.27       0.12       0.07
      5.34       0.23      -0.31
      5.30       0.32       0.02
      4.98      -0.07       0.14
      5.09       0.30      -0.02
      5.19       0.34       0.02
      5.28      -0.09       0.12
      5.38      -0.40       0.24
      5.60      -0.28      -0.09
      5.11      -0.42      -0.13
      5.28       0.06      -0.00
      5.32       0.19      -0.25
      5.29       0.31      -0.01
      5.11      -0.21      -0.14
      5.36      -0.35      -0.08
      5.64      -0.16       0.03
      5.62       0.17      -0.21
      5.33       0.05      -0.06
      5.04       0.07      -0.07
      5.18       0.22      -0.16
      5.01       0.12       0.16
      5.10       0.01       0.22
      5.12       0.13       0.31
      5.14      -0.22      -0.08
      5.32      -0.35      -0.15
      5.65      -0.20       0.04
      5.66       0.15      -0.20
      5.37       0.07      -0.03
      5.04       0.06      -0.08
      5.18       0.16      -0.15
      5.04       0.18       0.09
      5.06      -0.01       0.20
      5.05       0.22       0.35
      5.17      -0.23      -0.03
      5.27      -0.35      -0.22
      5.65      -0.25       0.06
      5.70       0.13      -0.18
      5.41       0.08       0.01
      5.04       0.05      -0.09
      5.18       0.12      -0.14
      5.07       0.22       0.03
      5.03      -0.02       0.20
      5.04       0.23       0.36
      5.20      -0.22       0.02
      5.22      -0.32      -0.24
      5.62      -0.27       0.07
      5.69       0.09      -0.15
      5.44       0.11      -0.05
      5.08       0.05      -0.11
      5.15       0.12      -0.12
      5.09       0.26      -0.02
      4.98      -0.23      -0.01
      5.31      -0.17       0.01
      5.71      -0.18       0.18
      5.66      -0.14       0.13
      5.38      -0.04      -0.04
      5.17      -0.11      -0.04
      5.06       0.23      -0.47
      5.03       0.52      -0.07
      5.01       0.11       0.11
      5.21       0.08       0.19
      5.00      -0.24      -0.02
      5.29      -0.14       0.01
      5.70      -0.25       0.23
      5.71      -0.17       0.15
      5.35      -0.01      -0.05
      5.21      -0.11      -0.04
      5.07       0.15      -0.46
      5.01       0.57      -0.15
      4.97       0.14       0.09
      5.21       0.13       0.23
      5.03      -0.26      -0.04
      5.26      -0.11      -0.00
      5.69      -0.32       0.28
      5.76      -0.20       0.17
      5.32       0.01      -0.07
      5.25      -0.11      -0.03
      5.08       0.07      -0.43
      5.00       0.59      -0.22
      4.97       0.18       0.09
      5.20       0.14       0.24
      5.06      -0.24      -0.03
      5.20      -0.12       0.00
      5.63      -0.32       0.24
      5.76      -0.16       0.15
      5.36      -0.00      -0.03
      5.30      -0.11      -0.03
      5.07       0.03      -0.34
      5.01       0.56      -0.29
      5.33       0.07      -0.26
      5.36      -0.08      -0.12
      5.57      -0.28       0.15
      5.46      -0.11       0.31
      5.43      -0.20       0.02
      5.19      -0.23      -0.01
      4.98      -0.14       0.05
      4.84       0.43       0.13
      4.97       0.34      -0.18
      5.41       0.20      -0.07
      5.38       0.06      -0.27
      5.28      -0.05      -0.16
      5.59      -0.31       0.22
      5.46      -0.11       0.30
      5.44      -0.15       0.04
      5.18      -0.23      -0.05
      5.00      -0.14       0.02
      4.84       0.35       0.15
      4.92       0.33      -0.18
      5.43       0.24      -0.04
      5.44       0.06      -0.28
      5.21      -0.02      -0.21
      5.61      -0.34       0.28
      5.46      -0.12       0.29
      5.46      -0.10       0.06
      5.17      -0.23      -0.08
      5.03      -0.15       0.00
      4.85       0.27       0.16
      4.88       0.36      -0.16
      5.40       0.27      -0.05
      5.44       0.06      -0.27
      5.19       0.00      -0.22
      5.60      -0.31       0.24
      5.47      -0.13       0.22
      5.46      -0.10       0.12
      5.22      -0.25      -0.07
      5.07      -0.17       0.03
      4.87       0.17       0.16
      5.20      -0.14       0.08
      5.01      -0.14      -0.20
      5.13      -0.14      -0.37
      5.46      -0.33      -0.01
      5.44      -0.11       0.03
      5.42       0.13      -0.03
      5.34       0.30       0.30
      5.06       0.29       0.04
      5.20       0.11       0.07
      5.23       0.05       0.03
      5.25      -0.13       0.15
      5.06      -0.15      -0.17
      5.08      -0.12      -0.37
      5.48      -0.33      -0.03
      5.42      -0.16       0.03
      5.41       0.07      -0.06
      5.36       0.30       0.32
      5.09       0.38       0.01
      5.15       0.06       0.05
      5.21       0.10       0.02
      5.30      -0.12       0.22
      5.11      -0.16      -0.14
      5.02      -0.10      -0.37
      5.49      -0.34      -0.05
      5.40      -0.21       0.04
      5.41       0.03      -0.09
      5.37       0.30       0.31
      5.12       0.42       0.01
      5.12       0.04       0.05
      5.21       0.14       0.03
      5.32      -0.12       0.22
      5.12      -0.16      -0.13
      4.99      -0.10      -0.35
      5.45      -0.31      -0.11
      5.41      -0.23       0.04
      5.43       0.02      -0.07
      5.39       0.30       0.26
      5.16       0.39       0.07
      5.07      -0.22       0.08
      5.38      -0.12      -0.06
      5.45      -0.19      -0.20
      5.52      -0.42       0.09
      5.29      -0.23       0.34
      5.30       0.34       0.18
      5.08       0.39       0.02
      5.05       0.33      -0.27
      5.28       0.08      -0.01
      5.16       0.10      -0.20
      5.02      -0.23       0.07
      5.39      -0.16      -0.06
      5.37      -0.18      -0.19
      5.55      -0.39       0.11
      5.31      -0.33       0.33
      5.34       0.34       0.19
      5.10       0.39       0.09
      5.02       0.35      -0.34
      5.29       0.14       0.02
      5.19       0.14      -0.23
      4.98      -0.24       0.07
      5.41      -0.20      -0.06
      5.29      -0.18      -0.18
      5.58      -0.36       0.13
      5.33      -0.43       0.31
      5.37       0.33       0.19
      5.11       0.38       0.14
      5.00       0.37      -0.37
      5.29       0.18       0.02
      5.20       0.13      -0.22
      4.98      -0.21       0.04
      5.38      -0.21      -0.04
      5.29      -0.16      -0.16
      5.60      -0.32       0.07
      5.35      -0.45       0.25
      5.34       0.27       0.23
      5.13       0.37       0.15
      5.01       0.38      -0.33
      5.42       0.01      -0.22
      5.45      -0.23      -0.17
      5.16      -0.15       0.05
      5.01      -0.19      -0.14
      5.14      -0.21      -0.01
      5.22      -0.29      -0.07
      5.20       0.16       0.08
      5.37       0.42       0.05
      5.31       0.29       0.29
      5.23       0.14       0.10
      5.45       0.07      -0.21
      5.42      -0.26      -0.17
      5.20      -0.10       0.07
      5.00      -0.16      -0.10
      5.11      -0.24      -0.04
      5.26      -0.30      -0.04
      5.22       0.12       0.06
      5.36       0.41       0.04
      5.32       0.31       0.29
      5.18       0.11       0.07
      5.47       0.13      -0.20
      5.40      -0.30      -0.18
      5.24      -0.05       0.08
      5.00      -0.12      -0.05
      5.09      -0.27      -0.06
      5.28      -0.30      -0.02
      5.23       0.06       0.04
      5.33       0.40       0.04
      5.33       0.33       0.27
      5.17       0.11       0.08
      5.47       0.16      -0.15
      5.39      -0.28      -0.19
      5.30      -0.06       0.04
      5.01      -0.15      -0.04
      5.07      -0.27      -0.11
      5.27      -0.26       0.00
      5.20      -0.02      -0.00
      5.28       0.38       0.07
      5.10       0.11      -0.09
      5.12       0.06      -0.09
      5.10       0.17      -0.31
      5.16       0.09      -0.14
      5.06       0.12       0.01
      5.22      -0.47       0.17
      5.60      -0.29       0.27
      5.51       0.03       0.20
      5.44       0.11       0.12
      5.25       0.02      -0.15
      5.13       0.13      -0.12
      5.09       0.08      -0.00
      5.07       0.20      -0.34
      5.18       0.05      -0.11
      5.08       0.19      -0.04
      5.17      -0.46       0.15
      5.65      -0.35       0.23
      5.47       0.04       0.23
      5.44       0.05       0.18
      5.25      -0.01      -0.18
      5.17       0.16      -0.15
      5.05       0.11       0.09
      5.05       0.24      -0.37
      5.20       0.01      -0.08
      5.10       0.25      -0.08
      5.13      -0.44       0.12
      5.68      -0.40       0.20
      5.44       0.03       0.26
      5.46       0.02       0.20
      5.27       0.02      -0.17
      5.19       0.16      -0.15
      5.04       0.10       0.09
      5.07       0.20      -0.36
      5.19       0.02      -0.11
      5.10       0.24      -0.11
      5.10      -0.36       0.13
      5.61      -0.42       0.21
      5.44       0.00       0.29
      5.06       0.36      -0.27
      5.16       0.05      -0.21
      4.99      -0.16      -0.29
      5.10      -0.21      -0.10
      5.08      -0.07       0.07
      5.24      -0.05       0.15
      5.43      -0.39       0.09
      5.71       0.02       0.37
      5.58       0.16       0.26
      5.22       0.25      -0.07
      5.04       0.33      -0.22
      5.18       0.14      -0.22
      4.94      -0.13      -0.30
      5.14      -0.22      -0.07
      5.10      -0.06       0.03
      5.21      -0.03       0.15
      5.44      -0.47       0.07
      5.66      -0.02       0.29
      5.58       0.15       0.32
      5.27       0.27      -0.05
      5.01       0.30      -0.17
      5.20       0.23      -0.22
      4.89      -0.11      -0.32
      5.18      -0.23      -0.04
      5.12      -0.05      -0.00
      5.18      -0.01       0.15
      5.44      -0.50       0.06
      5.61      -0.05       0.23
      5.61       0.15       0.38
      5.33       0.27      -0.03
      5.01       0.28      -0.16
      5.19       0.28      -0.25
      4.92      -0.11      -0.30
      5.17      -0.23      -0.08
      5.10      -0.08      -0.04
      5.14      -0.03       0.16
      5.41      -0.41       0.08
      5.56      -0.08       0.21
      5.18       0.07      -0.28
      5.51       0.14      -0.03
      5.48       0.03      -0.05
      5.14       0.01       0.04
      5.11       0.05       0.19
      5.25       0.20       0.09
      5.15       0.02       0.28
      5.33      -0.19       0.21
      5.18      -0.34      -0.13
      5.23       0.02      -0.30
      5.11       0.11      -0.30
      5.52       0.10      -0.02
      5.50       0.04      -0.04
      5.18      -0.03      -0.02
      5.08       0.07       0.26
      5.28       0.16       0.06
      5.15       0.03       0.26
      5.33      -0.14       0.17
      5.20      -0.38      -0.08
      5.22       0.04      -0.29
      5.03       0.15      -0.31
      5.53       0.06      -0.01
      5.52       0.06      -0.02
      5.23      -0.06      -0.07
      5.06       0.10       0.33
      5.29       0.12       0.04
      5.16       0.05       0.25
      5.31      -0.10       0.16
      5.22      -0.40      -0.02
      5.20       0.01      -0.29
      5.04       0.14      -0.32
      5.51       0.04      -0.05
      5.52       0.09      -0.03
      5.27      -0.05      -0.08
      5.05       0.10       0.30
      5.27       0.08       0.03
      5.16       0.11       0.23
      5.27      -0.08       0.20
      5.22       0.19      -0.34
      5.64       0.27      -0.36
      5.60       0.12      -0.00
      5.39       0.09       0.22
      5.20      -0.14       0.24
      5.11      -0.43       0.07
      4.92      -0.04       0.29
      5.09      -0.01       0.08
      5.27       0.00       0.05
      5.14      -0.10      -0.18
      5.17       0.23      -0.35
      5.60       0.26      -0.37
      5.62       0.17      -0.05
      5.38       0.08       0.16
      5.27      -0.10       0.31
      5.09      -0.48      -0.01
      4.92      -0.07       0.31
      5.08       0.02       0.13
      5.30      -0.03       0.08
      5.17      -0.12      -0.16
      5.11       0.27      -0.36
      5.57       0.25      -0.37
      5.63       0.22      -0.09
      5.37       0.07       0.10
      5.33      -0.06       0.38
      5.06      -0.52      -0.08
      4.94      -0.10       0.32
      5.06       0.05       0.17
      5.30      -0.06       0.08
      5.17      -0.10      -0.13
      5.09       0.24      -0.35
      5.53       0.23      -0.37
      5.65       0.24      -0.14
      5.41       0.06       0.10
      5.35      -0.02       0.38
      5.05      -0.47      -0.05
      4.99      -0.14       0.32
      5.03       0.05       0.18
      5.45       0.03      -0.14
      5.58       0.14      -0.14
      5.56       0.35      -0.22
      5.53       0.43      -0.05
      5.11      -0.18      -0.05
      5.13      -0.17      -0.00
      5.10      -0.14       0.23
      5.11      -0.10       0.41
      4.90      -0.19       0.19
      5.10      -0.18      -0.20
      5.38       0.03      -0.16
      5.59       0.13      -0.12
      5.54       0.33      -0.20
      5.58       0.50      -0.06
      5.14      -0.16      -0.02
      5.10      -0.15      -0.12
      5.15      -0.21       0.25
      5.13      -0.11       0.40
      4.88      -0.17       0.23
      5.07      -0.20      -0.19
      5.30       0.03      -0.19
      5.59       0.12      -0.09
      5.53       0.31      -0.18
      5.63       0.57      -0.06
      5.17      -0.15       0.00
      5.07      -0.14      -0.21
      5.20      -0.27       0.27
      5.13      -0.10       0.37
      4.89      -0.14       0.27
      5.05      -0.22      -0.15
      5.26       0.01      -0.20
      5.60       0.10      -0.08
      5.53       0.28      -0.19
      5.62       0.54      -0.10
      5.22      -0.06      -0.01
      5.06      -0.16      -0.19
      5.20      -0.26       0.28
      5.09      -0.06       0.32
      5.40       0.17      -0.12
      5.16       0.10      -0.05
      5.09       0.27       0.00
      5.14       0.30      -0.14
      5.28       0.13       0.17
      5.34       0.02       0.32
      5.26       0.06       0.22
      5.22      -0.43       0.01
      5.38      -0.47      -0.06
      5.25      -0.12      -0.36
      5.36       0.15      -0.12
      5.23       0.06      -0.04
      5.13       0.29       0.00
      5.10       0.28      -0.10
      5.28       0.16       0.12
      5.32       0.01       0.29
      5.30       0.05       0.31
      5.18      -0.38      -0.00
      5.37      -0.48      -0.05
      5.26      -0.09      -0.42
      5.32       0.12      -0.13
      5.29       0.02      -0.04
      5.18       0.30       0.00
      5.05       0.26      -0.06
      5.27       0.18       0.07
      5.31       0.01       0.27
      5.34       0.05       0.38
      5.14      -0.32      -0.01
      5.36      -0.50      -0.03
      5.28      -0.12      -0.41
      5.30       0.07      -0.14
      5.34       0.05      -0.04
      5.15       0.28      -0.01
      5.03       0.26      -0.05
      5.27       0.22      -0.00
      5.31       0.02       0.28
      5.35       0.04       0.38
      5.14      -0.23      -0.01
      5.13      -0.31      -0.30
      4.98       0.21      -0.28
      5.16       0.32       0.07
      5.06       0.29       0.34
      5.09       0.20       0.22
      5.18       0.10       0.25
      5.53       0.01       0.05
      5.48      -0.24      -0.04
      5.51      -0.15      -0.21
      5.38      -0.38      -0.09
      5.17      -0.34      -0.26
      4.98       0.11      -0.34
      5.21       0.36       0.04
      5.01       0.26       0.38
      5.13       0.24       0.17
      5.15       0.08       0.27
      5.48       0.04       0.04
      5.47      -0.17      -0.03
      5.50      -0.13      -0.18
      5.41      -0.38      -0.08
      5.22      -0.38      -0.21
      4.98       0.02      -0.40
      5.25       0.39       0.02
      4.96       0.22       0.41
      5.18       0.28       0.12
      5.13       0.07       0.30
      5.43       0.06       0.04
      5.47      -0.12      -0.02
      5.50      -0.14      -0.15
      5.44      -0.37      -0.11
      5.24      -0.38      -0.18
      4.98      -0.04      -0.41
      5.21       0.41      -0.02
      4.98       0.22       0.36
      5.18       0.30       0.14
      5.09       0.07       0.32
      5.39       0.08       0.07
      5.52      -0.11       0.01
      5.31      -0.27      -0.20
      5.29      -0.17      -0.04
      5.41      -0.21       0.25
      5.29       0.35       0.33
      5.11       0.43       0.12
      4.92       0.23       0.01
      5.09       0.05       0.34
      5.43       0.03      -0.15
      5.33      -0.18      -0.31
      5.34      -0.18      -0.29
      5.34      -0.33      -0.23
      5.27      -0.21      -0.07
      5.44      -0.20       0.21
      5.22       0.31       0.33
      5.17       0.46       0.12
      4.96       0.25       0.01
      5.04       0.05       0.41
      5.43       0.08      -0.14
      5.34      -0.21      -0.30
      5.31      -0.14      -0.29
      5.36      -0.39      -0.27
      5.24      -0.25      -0.10
      5.48      -0.18       0.17
      5.15       0.26       0.34
      5.24       0.50       0.12
      4.98       0.27       0.01
      5.00       0.06       0.44
      5.42       0.11      -0.11
      5.36      -0.21      -0.28
      5.30      -0.13      -0.29
      5.38      -0.39      -0.28
      5.23      -0.24      -0.11
      5.46      -0.16       0.14
      5.19       0.16       0.34
      5.29       0.49       0.16
      4.97       0.28       0.03
      4.96       0.09       0.34
      5.38       0.09      -0.05
      5.45       0.09       0.18
      5.43      -0.08       0.15
      5.49       0.23       0.24
      5.20       0.27       0.12
      4.85       0.25      -0.02
      4.92      -0.29       0.13
      5.10      -0.27      -0.10
      5.22      -0.01      -0.45
      5.53      -0.12      -0.23
      5.34      -0.03      -0.00
      5.45       0.06       0.17
      5.39      -0.10       0.14
      5.56       0.24       0.26
      5.22       0.25       0.09
      4.85       0.28      -0.01
      4.88      -0.29       0.11
      5.10      -0.30      -0.03
      5.20      -0.03      -0.52
      5.54      -0.07      -0.24
      5.37      -0.01       0.02
      5.44       0.03       0.17
      5.35      -0.12       0.14
      5.62       0.26       0.28
      5.24       0.24       0.06
      4.85       0.30       0.00
      4.84      -0.27       0.09
      5.09      -0.32       0.04
      5.18      -0.05      -0.55
      5.52      -0.04      -0.25
      5.40      -0.03       0.01
      5.41       0.01       0.13
      5.36      -0.08       0.15
      5.61       0.21       0.26
      5.26       0.23       0.08
      4.91       0.30       0.05
      4.84      -0.18       0.06
      5.08      -0.32       0.07
      5.17      -0.08      -0.49
      5.47      -0.01       0.13
      5.42       0.32       0.11
      5.35       0.37       0.28
      5.32       0.21       0.20
      5.31      -0.09       0.14
      5.27      -0.28      -0.21
      5.16      -0.46      -0.22
      5.17      -0.21      -0.48
      4.98       0.05      -0.14
      5.11       0.14       0.23
      5.46      -0.06       0.12
      5.39       0.33       0.07
      5.34       0.38       0.23
      5.35       0.20       0.22
      5.30      -0.03       0.19
      5.29      -0.28      -0.23
      5.12      -0.51      -0.16
      5.25      -0.26      -0.49
      4.98       0.04      -0.20
      5.08       0.23       0.28
      5.45      -0.11       0.12
      5.36       0.33       0.03
      5.33       0.39       0.18
      5.38       0.20       0.24
      5.29       0.03       0.24
      5.31      -0.29      -0.24
      5.09      -0.53      -0.13
      5.30      -0.29      -0.49
      4.98       0.02      -0.25
      5.05       0.24       0.28
      5.42      -0.13       0.11
      5.37       0.30       0.04
      5.36       0.37       0.18
      5.38       0.23       0.27
      5.28       0.07       0.22
      5.32      -0.28      -0.19
      5.12      -0.48      -0.13
      5.30      -0.29      -0.46
      5.43       0.32       0.04
      5.47       0.41       0.18
      5.37       0.26       0.23
      5.34       0.20       0.28
      5.63      -0.40      -0.20
      5.27      -0.35      -0.25
      5.13      -0.19      -0.31
      4.98      -0.11      -0.38
      4.82      -0.10       0.12
      5.11      -0.05       0.22
      5.38       0.33       0.09
      5.51       0.38       0.18
      5.37       0.26       0.21
      5.33       0.20       0.30
      5.66      -0.35      -0.15
      5.28      -0.38      -0.25
      5.08      -0.16      -0.30
      5.04      -0.11      -0.44
      4.82      -0.12       0.08
      5.09      -0.06       0.21
      5.33       0.34       0.14
      5.56       0.35       0.19
      5.37       0.27       0.19
      5.31       0.20       0.32
      5.68      -0.29      -0.10
      5.29      -0.41      -0.25
      5.06      -0.15      -0.29
      5.09      -0.12      -0.46
      4.81      -0.13       0.03
      5.05      -0.06       0.20
      5.29       0.29       0.18
      5.56       0.34       0.15
      5.37       0.30       0.18
      5.32       0.21       0.32
      5.61      -0.18      -0.03
      5.35      -0.45      -0.27
      5.10      -0.17      -0.28
      5.13      -0.16      -0.44
      5.24       0.12      -0.04
      5.50       0.33      -0.10
      5.68      -0.03      -0.01
      5.45       0.14       0.03
      5.28       0.18       0.29
      5.38       0.11       0.17
      5.08      -0.05      -0.10
      5.08      -0.26      -0.12
      4.89      -0.21      -0.06
      4.96      -0.28      -0.06
      5.23       0.05      -0.08
      5.49       0.35      -0.07
      5.68      -0.08      -0.01
      5.49       0.15       0.05
      5.24       0.18       0.23
      5.39       0.11       0.24
      5.08      -0.02      -0.05
      5.11      -0.22      -0.15
      4.85      -0.18      -0.07
      4.98      -0.30      -0.08
      5.23      -0.01      -0.11
      5.47       0.38      -0.05
      5.67      -0.14      -0.01
      5.53       0.17       0.08
      5.21       0.18       0.17
      5.40       0.12       0.30
      5.09      -0.00      -0.02
      5.13      -0.18      -0.18
      4.85      -0.18      -0.07
      4.99      -0.31      -0.09
      5.19      -0.06      -0.10
      5.43       0.37      -0.03
      5.65      -0.07      -0.04
      5.56       0.16       0.06
      5.24       0.16       0.13
      5.40       0.13       0.33
      5.15       0.02      -0.02
      5.12      -0.17      -0.19
      5.56      -0.16      -0.22
      5.33      -0.02      -0.26
      5.39       0.00      -0.24
      5.09      -0.10      -0.09
      5.14      -0.18       0.30
      5.21      -0.06       0.18
      5.14       0.17      -0.08
      5.11       0.15       0.23
      5.10       0.08       0.19
      5.43       0.12      -0.01
      5.61      -0.18      -0.20
      5.28      -0.07      -0.29
      5.40       0.08      -0.25
      5.10      -0.09      -0.06
      5.17      -0.15       0.26
      5.20      -0.13       0.25
      5.15       0.17      -0.15
      5.15       0.15       0.23
      5.05       0.07       0.17
      5.40       0.16       0.02
      5.67      -0.20      -0.18
      5.22      -0.12      -0.31
      5.41       0.15      -0.25
      5.11      -0.07      -0.03
      5.19      -0.13       0.23
      5.18      -0.19       0.31
      5.17       0.16      -0.19
      5.16       0.15       0.23
      5.02       0.07       0.16
      5.38       0.17       0.06
      5.66      -0.18      -0.16
      5.25      -0.13      -0.31
      5.42       0.16      -0.24
      5.17      -0.09      -0.06
      5.16      -0.13       0.14
      5.16      -0.20       0.33
      5.18       0.16      -0.15
      5.15       0.16       0.20
      5.55      -0.08      -0.20
      5.20       0.27       0.04
      5.17       0.06       0.16
      5.15       0.18      -0.01
      5.07      -0.10       0.25
      5.03      -0.24       0.06
      5.06      -0.27       0.05
      5.30      -0.08       0.10
      5.21       0.16      -0.06
      5.75       0.11      -0.37
      5.60      -0.11      -0.21
      5.20       0.25      -0.00
      5.19       0.09       0.15
      5.15       0.14      -0.02
      5.09      -0.06       0.26
      5.04      -0.17       0.14
      5.05      -0.29       0.02
      5.30      -0.12       0.08
      5.10       0.15       0.01
      5.75       0.13      -0.41
      5.65      -0.14      -0.21
      5.20       0.23      -0.04
      5.22       0.12       0.14
      5.15       0.11      -0.03
      5.11      -0.01       0.27
      5.05      -0.11       0.21
      5.04      -0.31      -0.01
      5.29      -0.16       0.07
      5.07       0.13       0.06
      5.72       0.14      -0.41
      5.69      -0.12      -0.22
      5.24       0.18      -0.07
      5.22       0.16       0.13
      5.14       0.08       0.02
      5.12       0.05       0.21
      5.04      -0.14       0.21
      5.03      -0.34      -0.05
      5.24      -0.17       0.08
      5.33       0.01      -0.05
      5.16      -0.01       0.26
      5.10      -0.19       0.33
      5.06       0.00      -0.01
      5.15      -0.01      -0.29
      4.84       0.14      -0.11
      5.23       0.11      -0.04
      5.60       0.27       0.01
      5.53      -0.13      -0.14
      5.50      -0.21       0.02
      5.36       0.04      -0.04
      5.15       0.01       0.21
      5.12      -0.21       0.36
      5.09      -0.00       0.01
      5.19      -0.08      -0.29
      4.82       0.17      -0.04
      5.19       0.08      -0.07
      5.59       0.34       0.01
      5.53      -0.12      -0.15
      5.46      -0.25      -0.02
      5.39       0.07      -0.04
      5.13       0.03       0.17
      5.13      -0.22       0.40
      5.12      -0.01       0.02
      5.22      -0.15      -0.28
      4.80       0.20       0.01
      5.15       0.06      -0.11
      5.57       0.37       0.02
      5.55      -0.09      -0.15
      5.45      -0.25      -0.04
      5.44       0.05      -0.01
      5.15       0.02       0.12
      5.15      -0.20       0.40
      5.11      -0.03       0.06
      5.17      -0.12      -0.23
      4.86       0.20      -0.06
      5.10       0.06      -0.15
      5.51       0.33       0.03
      5.44       0.06       0.24
      5.35      -0.36       0.21
      5.20      -0.37       0.35
      5.30      -0.21       0.09
      4.99       0.08      -0.18
      4.84       0.27      -0.42
      5.01       0.27      -0.28
      5.44       0.35       0.09
      5.53      -0.10      -0.06
      5.42       0.02      -0.05
      5.49       0.08       0.24
      5.38      -0.37       0.14
      5.12      -0.34       0.41
      5.34      -0.29       0.09
      5.01       0.05      -0.17
      4.85       0.26      -0.41
      4.95       0.26      -0.31
      5.42       0.41       0.11
      5.56      -0.04      -0.03
      5.40      -0.02      -0.08
      5.53       0.10       0.24
      5.41      -0.37       0.07
      5.04      -0.31       0.48
      5.38      -0.37       0.09
      5.03       0.02      -0.16
      4.86       0.25      -0.40
      4.90       0.26      -0.33
      5.39       0.45       0.10
      5.56       0.00      -0.01
      5.40      -0.06      -0.10
      5.53       0.11       0.22
      5.41      -0.31       0.08
      5.07      -0.31       0.47
      5.38      -0.39       0.11
      5.07       0.02      -0.10
      4.88       0.23      -0.35
      4.88       0.27      -0.36
      5.34       0.41       0.03
      5.49       0.13       0.09
      5.46       0.14       0.24
      4.99      -0.21       0.26
      4.95      -0.42       0.43
      5.01      -0.19      -0.13
      5.08      -0.14      -0.26
      5.21       0.16      -0.10
      5.53       0.27      -0.07
      5.40       0.27      -0.18
      5.42      -0.02      -0.24
      5.51       0.16       0.08
      5.47       0.13       0.16
      4.98      -0.16       0.27
      4.95      -0.49       0.46
      5.01      -0.18      -0.10
      5.08      -0.17      -0.31
      5.12       0.13      -0.09
      5.60       0.30      -0.02
      5.40       0.29      -0.15
      5.43      -0.01      -0.26
      5.52       0.20       0.07
      5.48       0.12       0.08
      4.97      -0.11       0.28
      4.94      -0.57       0.48
      5.00      -0.17      -0.06
      5.09      -0.20      -0.35