# vtk DataFile Version 3.0
High resolution disturbed wind for time = 456.5 seconds.
ASCII
DATASET STRUCTURED_POINTS
DIMENSIONS    38    30    31
ORIGIN     -75.97     -79.28      11.00
SPACING       4.01       5.05       5.00
POINT_DATA           35340
VECTORS Velocity float
      5.31       0.14      -0.20
      5.27       0.30      -0.05
      5.06       0.02       0.10
      5.10       0.23      -0.02
      5.26       0.37      -0.02
      5.18      -0.03       0.05
      5.36      -0.23       0.30
      5.56      -0.27       0.05
      5.16      -0.48      -0.10
      5.29      -0.06      -0.14
      5.30       0.11      -0.14
      5.26       0.30      -0.08
      5.09       0.06       0.09
      5.10       0.19      -0.01
      5.29       0.39      -0.03
      5.13       0.00       0.01
      5.35      -0.16       0.33
      5.54      -0.27       0.12
      5.18      -0.51      -0.09
      5.30      -0.12      -0.20
      5.29       0.07      -0.09
      5.25       0.29      -0.11
      5.13       0.10       0.07
      5.11       0.16      -0.01
      5.31       0.40      -0.05
      5.09       0.04      -0.02
      5.34      -0.10       0.34
      5.52      -0.29       0.17
      5.24      -0.50      -0.09
      5.27      -0.18      -0.22
      5.29       0.06      -0.05
      5.26       0.28      -0.15
      5.17       0.15       0.06
      5.08       0.11       0.02
      5.26       0.38      -0.04
      5.11       0.10      -0.01
      5.33      -0.10       0.30
      5.49      -0.33       0.18
      5.12       0.11      -0.10
      5.11       0.30      -0.07
      4.97      -0.03       0.28
      5.13       0.14       0.32
      5.28      -0.18       0.10
      5.13      -0.25      -0.25
      5.54      -0.32       0.07
      5.66       0.01      -0.08
      5.48       0.18      -0.17
      5.15       0.03      -0.14
      5.09       0.11      -0.07
      5.13       0.33      -0.12
      4.94      -0.04       0.32
      5.17       0.10       0.31
      5.32      -0.17       0.14
      5.08      -0.21      -0.26
      5.51      -0.34       0.08
      5.64      -0.03      -0.05
      5.50       0.22      -0.22
      5.19       0.03      -0.15
      5.06       0.10      -0.05
      5.15       0.37      -0.16
      4.91      -0.04       0.37
      5.21       0.05       0.30
      5.35      -0.15       0.18
      5.04      -0.18      -0.26
      5.47      -0.35       0.06
      5.63      -0.07      -0.02
      5.53       0.23      -0.25
      5.23       0.03      -0.14
      5.05       0.09      -0.05
      5.16       0.33      -0.17
      4.93       0.00       0.31
      5.18       0.04       0.27
      5.28      -0.06       0.22
      5.07      -0.19      -0.20
      5.42      -0.35      -0.00
      5.64      -0.11       0.00
      5.07      -0.02      -0.25
      5.02       0.53      -0.36
      5.03       0.27       0.12
      5.15       0.07       0.20
      5.13      -0.17       0.01
      5.06      -0.17       0.01
      5.49      -0.28       0.13
      5.75      -0.07       0.10
      5.45      -0.03       0.04
      5.40      -0.11      -0.01
      5.06      -0.06      -0.17
      5.02       0.50      -0.43
      5.06       0.32       0.13
      5.14       0.04       0.18
      5.17      -0.14       0.03
      4.99      -0.19       0.02
      5.43      -0.26       0.07
      5.75      -0.02       0.08
      5.49      -0.05       0.07
      5.45      -0.11      -0.00
      5.05      -0.10      -0.09
      5.03       0.48      -0.50
      5.09       0.36       0.15
      5.12       0.00       0.16
      5.21      -0.11       0.06
      4.94      -0.21       0.02
      5.37      -0.24       0.03
      5.74      -0.02       0.08
      5.54      -0.07       0.10
      5.45      -0.10      -0.01
      5.08      -0.11      -0.05
      5.04       0.41      -0.50
      5.08       0.41       0.09
      5.08       0.03       0.15
      5.21      -0.05       0.10
      4.96      -0.22       0.01
      5.35      -0.21       0.02
      5.73      -0.09       0.13
      5.12      -0.19       0.05
      4.88       0.07       0.15
      4.85       0.51      -0.05
      5.27       0.31      -0.12
      5.39       0.06      -0.22
      5.20       0.04      -0.23
      5.56      -0.22       0.11
      5.49      -0.17       0.08
      5.46      -0.10       0.25
      5.32      -0.30      -0.04
      5.17      -0.21       0.07
      4.90      -0.02       0.15
      4.84       0.58       0.00
      5.21       0.33      -0.15
      5.37       0.06      -0.19
      5.20       0.06      -0.24
      5.55      -0.18       0.04
      5.50      -0.18       0.01
      5.46      -0.10       0.31
      5.36      -0.33      -0.03
      5.21      -0.23       0.10
      4.92      -0.12       0.15
      4.82       0.65       0.05
      5.14       0.35      -0.18
      5.35       0.06      -0.17
      5.21       0.08      -0.24
      5.52      -0.14      -0.01
      5.52      -0.20      -0.01
      5.46      -0.10       0.34
      5.39      -0.31      -0.02
      5.22      -0.23       0.08
      4.94      -0.14       0.12
      4.83       0.60       0.08
      5.09       0.34      -0.18
      5.37       0.11      -0.14
      5.27       0.07      -0.25
      5.44      -0.11      -0.06
      5.54      -0.24       0.06
      5.41       0.29       0.21
      5.21       0.36       0.13
      5.05       0.03       0.09
      5.27       0.20       0.07
      5.31      -0.12       0.13
      5.10      -0.15      -0.10
      4.94      -0.11      -0.30
      5.35      -0.24      -0.26
      5.42      -0.27       0.04
      5.46       0.02      -0.01
      5.43       0.29       0.15
      5.25       0.33       0.19
      5.02       0.03       0.11
      5.30       0.23       0.10
      5.31      -0.12       0.09
      5.10      -0.15      -0.09
      4.92      -0.11      -0.28
      5.30      -0.21      -0.33
      5.42      -0.29       0.05
      5.48       0.02       0.01
      5.44       0.28       0.10
      5.30       0.30       0.25
      4.99       0.03       0.13
      5.33       0.26       0.12
      5.31      -0.12       0.05
      5.10      -0.15      -0.07
      4.91      -0.11      -0.26
      5.25      -0.18      -0.38
      5.43      -0.31       0.04
      5.48      -0.01       0.02
      5.44       0.25       0.06
      5.32       0.30       0.27
      5.00       0.10       0.11
      5.29       0.21       0.10
      5.28      -0.07       0.04
      5.14      -0.14      -0.00
      4.96      -0.12      -0.23
      5.20      -0.16      -0.37
      5.15       0.37       0.16
      5.01       0.39      -0.28
      5.22       0.22      -0.01
      5.21       0.02      -0.15
      5.04      -0.12      -0.04
      5.27      -0.21       0.04
      5.32      -0.09      -0.10
      5.63      -0.25      -0.09
      5.40      -0.48       0.12
      5.28       0.15       0.32
      5.17       0.36       0.17
      5.02       0.39      -0.23
      5.19       0.23      -0.03
      5.22      -0.04      -0.12
      5.07      -0.07      -0.07
      5.22      -0.21       0.07
      5.33      -0.06      -0.07
      5.64      -0.21      -0.17
      5.43      -0.50       0.06
      5.25       0.09       0.36
      5.19       0.35       0.17
      5.03       0.40      -0.19
      5.16       0.25      -0.04
      5.22      -0.09      -0.09
      5.09      -0.03      -0.11
      5.18      -0.21       0.10
      5.34      -0.04      -0.05
      5.63      -0.19      -0.21
      5.45      -0.49       0.03
      5.25       0.01       0.37
      5.22       0.35       0.18
      5.04       0.40      -0.13
      5.13       0.27      -0.11
      5.24      -0.04      -0.06
      5.12       0.01      -0.14
      5.13      -0.22       0.09
      5.36      -0.08      -0.05
      5.55      -0.19      -0.21
      5.17      -0.10      -0.05
      5.24       0.36       0.09
      5.38       0.38       0.18
      5.23       0.18       0.18
      5.44       0.20       0.03
      5.38      -0.20      -0.21
      5.41      -0.11      -0.07
      5.03      -0.22      -0.00
      5.04      -0.28      -0.19
      5.23      -0.17       0.04
      5.15      -0.18      -0.09
      5.19       0.34       0.12
      5.40       0.40       0.14
      5.27       0.21       0.23
      5.42       0.22       0.11
      5.37      -0.16      -0.22
      5.46      -0.13      -0.12
      5.04      -0.25       0.01
      5.03      -0.29      -0.24
      5.21      -0.13       0.06
      5.12      -0.25      -0.13
      5.15       0.31       0.14
      5.43       0.43       0.09
      5.30       0.24       0.28
      5.41       0.24       0.19
      5.37      -0.11      -0.23
      5.50      -0.15      -0.16
      5.07      -0.25       0.03
      5.02      -0.27      -0.24
      5.19      -0.13       0.05
      5.14      -0.28      -0.13
      5.15       0.27       0.13
      5.42       0.43       0.07
      5.30       0.26       0.28
      5.35       0.21       0.16
      5.40      -0.06      -0.23
      5.48      -0.19      -0.16
      5.11      -0.21       0.04
      5.52      -0.45       0.22
      5.43      -0.03       0.33
      5.55       0.02       0.15
      5.35       0.15      -0.11
      5.22       0.12      -0.12
      5.03       0.07       0.03
      5.14       0.09      -0.33
      5.18       0.05      -0.18
      5.11       0.21      -0.16
      5.03      -0.19       0.14
      5.45      -0.47       0.24
      5.43      -0.06       0.36
      5.58       0.01       0.13
      5.38       0.21      -0.08
      5.24       0.10      -0.10
      5.02       0.06       0.00
      5.17       0.04      -0.32
      5.17       0.06      -0.22
      5.11       0.20      -0.19
      5.00      -0.11       0.15
      5.38      -0.49       0.25
      5.42      -0.09       0.39
      5.62       0.01       0.11
      5.42       0.27      -0.05
      5.25       0.09      -0.08
      5.02       0.05      -0.03
      5.19       0.00      -0.29
      5.15       0.09      -0.25
      5.12       0.17      -0.19
      5.00      -0.03       0.12
      5.32      -0.50       0.23
      5.47      -0.15       0.37
      5.60       0.01       0.13
      5.43       0.22       0.01
      5.25       0.06      -0.11
      5.06       0.08      -0.06
      5.16       0.03      -0.20
      5.13       0.12      -0.28
      5.38      -0.32       0.10
      5.51      -0.11       0.19
      5.73       0.13       0.50
      5.46       0.23       0.01
      5.03       0.24      -0.15
      5.15       0.36      -0.32
      5.02      -0.14      -0.25
      5.15      -0.23      -0.18
      5.04      -0.14      -0.12
      5.06      -0.08       0.17
      5.35      -0.23       0.11
      5.46      -0.14       0.17
      5.79       0.13       0.56
      5.52       0.21       0.04
      5.03       0.22      -0.14
      5.13       0.39      -0.35
      5.07      -0.15      -0.22
      5.13      -0.22      -0.22
      5.02      -0.16      -0.15
      5.02      -0.10       0.17
      5.32      -0.14       0.13
      5.41      -0.17       0.15
      5.85       0.12       0.62
      5.58       0.20       0.06
      5.04       0.21      -0.14
      5.11       0.42      -0.37
      5.11      -0.13      -0.20
      5.11      -0.21      -0.26
      5.02      -0.19      -0.16
      5.02      -0.10       0.15
      5.29      -0.10       0.14
      5.41      -0.23       0.13
      5.82       0.09       0.56
      5.58       0.19       0.12
      5.10       0.22      -0.12
      5.09       0.39      -0.32
      5.13      -0.05      -0.21
      5.06      -0.19      -0.27
      5.17       0.18       0.21
      5.22      -0.05       0.24
      5.28      -0.37       0.16
      5.17      -0.11      -0.29
      5.17       0.05      -0.33
      5.43      -0.00      -0.16
      5.50       0.18      -0.04
      5.36      -0.03      -0.09
      5.02       0.09       0.23
      5.22       0.02       0.01
      5.17       0.24       0.19
      5.18      -0.02       0.29
      5.32      -0.36       0.25
      5.15      -0.16      -0.29
      5.23       0.01      -0.33
      5.40      -0.02      -0.21
      5.50       0.22      -0.05
      5.40      -0.02      -0.09
      5.01       0.09       0.20
      5.19      -0.01       0.00
      5.17       0.30       0.17
      5.14       0.00       0.33
      5.35      -0.35       0.33
      5.13      -0.22      -0.29
      5.29      -0.03      -0.34
      5.36      -0.03      -0.25
      5.50       0.24      -0.06
      5.43      -0.00      -0.09
      5.03       0.08       0.16
      5.16      -0.01       0.04
      5.19       0.29       0.14
      5.13       0.01       0.32
      5.35      -0.30       0.31
      5.15      -0.26      -0.24
      5.27      -0.01      -0.33
      5.28       0.02      -0.27
      5.50       0.19      -0.05
      5.45       0.01      -0.07
      5.05      -0.18       0.31
      4.99       0.05       0.20
      5.22      -0.09       0.00
      5.17       0.01      -0.08
      5.08       0.09      -0.31
      5.43       0.16      -0.34
      5.69       0.27      -0.26
      5.50       0.02       0.10
      5.40       0.06       0.37
      5.03      -0.34      -0.00
      5.11      -0.21       0.31
      4.96       0.05       0.21
      5.18      -0.11      -0.03
      5.16       0.06      -0.06
      5.07       0.03      -0.29
      5.39       0.13      -0.33
      5.71       0.28      -0.31
      5.54       0.01       0.10
      5.42       0.10       0.37
      5.02      -0.28       0.02
      5.16      -0.25       0.31
      4.92       0.05       0.23
      5.14      -0.12      -0.06
      5.16       0.11      -0.04
      5.07      -0.04      -0.26
      5.35       0.10      -0.32
      5.71       0.29      -0.35
      5.57       0.01       0.09
      5.42       0.12       0.34
      5.06      -0.23       0.07
      5.17      -0.30       0.25
      4.92       0.03       0.24
      5.12      -0.09      -0.03
      5.19       0.08      -0.01
      5.09      -0.06      -0.24
      5.29       0.14      -0.33
      5.68       0.28      -0.36
      5.59       0.06       0.05
      5.21      -0.24       0.30
      5.04      -0.01       0.27
      4.96      -0.11       0.35
      5.01      -0.25      -0.05
      5.22      -0.06      -0.22
      5.61       0.06      -0.08
      5.55       0.22      -0.20
      5.60       0.46      -0.20
      5.32       0.12      -0.03
      5.04      -0.19      -0.15
      5.22      -0.23       0.31
      4.99       0.04       0.22
      5.00      -0.09       0.39
      4.99      -0.27       0.00
      5.20      -0.10      -0.23
      5.62       0.04      -0.08
      5.55       0.18      -0.21
      5.59       0.42      -0.24
      5.37       0.20      -0.04
      5.03      -0.21      -0.13
      5.23      -0.22       0.32
      4.95       0.08       0.17
      5.03      -0.08       0.43
      4.97      -0.29       0.05
      5.18      -0.13      -0.24
      5.61       0.02      -0.09
      5.56       0.16      -0.20
      5.58       0.39      -0.27
      5.42       0.28      -0.05
      5.05      -0.21      -0.11
      5.21      -0.20       0.25
      4.98       0.03       0.17
      5.06      -0.08       0.43
      4.95      -0.26       0.09
      5.15      -0.15      -0.23
      5.54       0.03      -0.11
      5.57       0.15      -0.18
      5.57       0.38      -0.25
      5.36       0.04       0.38
      5.13      -0.12      -0.02
      5.36      -0.54       0.00
      5.35      -0.28      -0.25
      5.27      -0.07      -0.16
      5.42       0.14      -0.08
      5.07       0.24      -0.05
      5.00       0.25      -0.02
      5.26       0.29      -0.15
      5.30       0.05       0.29
      5.37       0.04       0.38
      5.13      -0.03      -0.02
      5.36      -0.56       0.02
      5.39      -0.35      -0.18
      5.26      -0.14      -0.17
      5.45       0.19      -0.09
      5.03       0.22      -0.06
      4.98       0.25      -0.00
      5.26       0.33      -0.22
      5.30       0.06       0.30
      5.38       0.03       0.39
      5.12       0.06      -0.03
      5.36      -0.57       0.04
      5.42      -0.42      -0.11
      5.24      -0.20      -0.18
      5.48       0.22      -0.11
      5.02       0.19      -0.07
      4.99       0.25       0.01
      5.24       0.34      -0.24
      5.29       0.08       0.27
      5.37       0.03       0.37
      5.15       0.08       0.04
      5.32      -0.54       0.03
      5.41      -0.44      -0.09
      5.25      -0.18      -0.24
      5.44       0.20      -0.11
      5.08       0.15      -0.06
      5.03       0.26       0.01
      5.35       0.11       0.10
      5.57      -0.09       0.03
      5.52      -0.29      -0.11
      5.50      -0.30      -0.21
      5.27      -0.37      -0.14
      5.00      -0.14      -0.41
      5.09       0.42      -0.08
      5.02       0.23       0.24
      5.19       0.35       0.20
      5.02       0.08       0.35
      5.31       0.13       0.14
      5.61      -0.07       0.05
      5.53      -0.35      -0.08
      5.53      -0.27      -0.26
      5.28      -0.36      -0.13
      5.01      -0.19      -0.41
      5.03       0.43      -0.11
      5.04       0.23       0.19
      5.20       0.37       0.22
      4.98       0.08       0.37
      5.27       0.15       0.17
      5.66      -0.05       0.07
      5.53      -0.42      -0.06
      5.56      -0.23      -0.30
      5.30      -0.35      -0.11
      5.03      -0.23      -0.40
      4.98       0.42      -0.15
      5.07       0.24       0.14
      5.18       0.37       0.26
      4.99       0.10       0.35
      5.24       0.15       0.19
      5.63      -0.03       0.07
      5.52      -0.38      -0.05
      5.55      -0.21      -0.28
      5.32      -0.36      -0.10
      5.07      -0.27      -0.36
      4.98       0.32      -0.21
      5.11       0.28       0.11
      4.91       0.12       0.24
      5.33       0.07       0.02
      5.39      -0.17      -0.24
      5.30      -0.12      -0.32
      5.40      -0.34      -0.30
      5.24      -0.18      -0.12
      5.41      -0.11       0.07
      5.27      -0.08       0.35
      5.40       0.48       0.26
      4.94       0.30       0.09
      4.88       0.14       0.15
      5.29       0.05       0.07
      5.40      -0.16      -0.22
      5.30      -0.11      -0.34
      5.42      -0.31      -0.31
      5.24      -0.16      -0.13
      5.39      -0.09       0.04
      5.30      -0.19       0.35
      5.45       0.47       0.30
      4.93       0.32       0.12
      4.84       0.17       0.06
      5.24       0.04       0.13
      5.42      -0.14      -0.20
      5.29      -0.11      -0.36
      5.43      -0.28      -0.31
      5.25      -0.14      -0.14
      5.36      -0.08       0.02
      5.34      -0.25       0.34
      5.45       0.45       0.33
      4.96       0.34       0.13
      4.84       0.19       0.02
      5.20       0.04       0.20
      5.42      -0.09      -0.19
      5.31      -0.13      -0.34
      5.40      -0.25      -0.31
      5.28      -0.20      -0.17
      5.33      -0.13      -0.01
      5.37      -0.24       0.30
      5.07      -0.31       0.11
      5.15      -0.11      -0.44
      5.41       0.00      -0.25
      5.45      -0.14      -0.09
      5.33      -0.04       0.02
      5.42       0.05       0.17
      5.56       0.07       0.20
      5.30       0.20       0.14
      5.05       0.31       0.13
      4.86       0.03      -0.01
      5.06      -0.31       0.14
      5.14      -0.15      -0.39
      5.35       0.02      -0.25
      5.47      -0.20      -0.14
      5.29      -0.06      -0.04
      5.44       0.11       0.18
      5.54       0.01       0.18
      5.31       0.19       0.17
      5.12       0.31       0.18
      4.86       0.12      -0.04
      5.05      -0.30       0.17
      5.13      -0.18      -0.34
      5.30       0.04      -0.25
      5.50      -0.25      -0.18
      5.25      -0.09      -0.09
      5.46       0.16       0.19
      5.51      -0.04       0.16
      5.35       0.19       0.19
      5.16       0.30       0.19
      4.86       0.18      -0.05
      5.02      -0.30       0.17
      5.12      -0.21      -0.27
      5.27       0.03      -0.31
      5.51      -0.21      -0.20
      5.28      -0.07      -0.06
      5.46       0.13       0.18
      5.47      -0.06       0.15
      5.41       0.21       0.21
      5.15      -0.41      -0.14
      5.29      -0.30      -0.43
      4.95      -0.02      -0.35
      5.02       0.16       0.16
      5.31      -0.13       0.08
      5.43       0.20       0.09
      5.44       0.33       0.19
      5.38       0.30       0.34
      5.26       0.16       0.18
      5.33      -0.27      -0.08
      5.17      -0.36      -0.15
      5.29      -0.31      -0.40
      4.93      -0.05      -0.39
      5.00       0.12       0.10
      5.26      -0.14       0.06
      5.46       0.15       0.11
      5.47       0.31       0.20
      5.39       0.33       0.37
      5.25       0.20       0.16
      5.33      -0.26      -0.02
      5.19      -0.30      -0.16
      5.28      -0.31      -0.38
      4.92      -0.07      -0.44
      4.98       0.08       0.04
      5.21      -0.13       0.05
      5.48       0.10       0.14
      5.49       0.30       0.19
      5.38       0.35       0.38
      5.26       0.22       0.16
      5.33      -0.23       0.03
      5.22      -0.28      -0.17
      5.25      -0.35      -0.33
      4.99      -0.11      -0.45
      4.98       0.07      -0.01
      5.18      -0.05       0.10
      5.47       0.05       0.13
      5.46       0.31       0.15
      5.37       0.36       0.33
      5.14      -0.20      -0.27
      5.17      -0.19      -0.41
      4.81      -0.12      -0.09
      4.94      -0.04       0.22
      5.23       0.14       0.23
      5.55       0.32       0.03
      5.37       0.40       0.17
      5.35       0.24       0.30
      5.48       0.04       0.12
      5.48      -0.51      -0.32
      5.19      -0.23      -0.25
      5.21      -0.23      -0.38
      4.80      -0.12      -0.14
      4.89      -0.04       0.23
      5.20       0.06       0.26
      5.55       0.31      -0.03
      5.37       0.44       0.16
      5.37       0.25       0.29
      5.42       0.14       0.19
      5.54      -0.55      -0.33
      5.23      -0.25      -0.24
      5.25      -0.26      -0.35
      4.80      -0.12      -0.20
      4.83      -0.03       0.24
      5.17      -0.01       0.28
      5.54       0.31      -0.07
      5.38       0.47       0.16
      5.38       0.25       0.28
      5.37       0.20       0.24
      5.58      -0.53      -0.32
      5.25      -0.28      -0.24
      5.23      -0.25      -0.34
      4.85      -0.11      -0.26
      4.83      -0.05       0.21
      5.15      -0.02       0.27
      5.49       0.32      -0.02
      5.42       0.44       0.17
      5.38       0.26       0.26
      5.21       0.04      -0.02
      5.11      -0.15      -0.21
      4.91      -0.29      -0.05
      5.01      -0.30      -0.06
      5.04      -0.15      -0.04
      5.33       0.32       0.00
      5.58       0.11      -0.10
      5.63       0.13       0.03
      5.31       0.13       0.04
      5.39       0.16       0.41
      5.27       0.06      -0.02
      5.10      -0.13      -0.22
      4.95      -0.33      -0.04
      5.01      -0.30      -0.05
      4.98      -0.19      -0.01
      5.29       0.30       0.02
      5.55       0.20      -0.13
      5.67       0.12       0.01
      5.34       0.11      -0.00
      5.38       0.17       0.44
      5.32       0.08      -0.02
      5.09      -0.12      -0.24
      4.98      -0.38      -0.04
      5.02      -0.30      -0.04
      4.91      -0.23       0.01
      5.24       0.27       0.03
      5.53       0.27      -0.15
      5.69       0.09       0.00
      5.37       0.11      -0.01
      5.36       0.18       0.42
      5.35       0.09       0.02
      5.08      -0.09      -0.20
      5.01      -0.36      -0.06
      4.98      -0.27      -0.04
      4.93      -0.24      -0.01
      5.24       0.20      -0.00
      5.52       0.30      -0.12
      5.68       0.04      -0.00
      5.20       0.15      -0.11
      5.14       0.17       0.17
      5.02       0.11       0.19
      5.31       0.15       0.16
      5.58      -0.10      -0.13
      5.35      -0.11      -0.29
      5.44       0.13      -0.22
      5.29      -0.15      -0.15
      5.11      -0.14      -0.04
      5.10      -0.23       0.36
      5.22       0.14      -0.07
      5.13       0.18       0.14
      5.02       0.12       0.20
      5.29       0.13       0.21
      5.55      -0.05      -0.11
      5.39      -0.11      -0.27
      5.45       0.12      -0.20
      5.34      -0.17      -0.19
      5.08      -0.14      -0.12
      5.08      -0.24       0.38
      5.24       0.14      -0.03
      5.12       0.19       0.12
      5.01       0.14       0.21
      5.26       0.12       0.25
      5.51      -0.01      -0.10
      5.44      -0.10      -0.26
      5.45       0.10      -0.20
      5.38      -0.16      -0.22
      5.07      -0.14      -0.16
      5.08      -0.23       0.37
      5.24       0.09       0.03
      5.12       0.19       0.06
      5.04       0.14       0.22
      5.21       0.11       0.24
      5.48       0.03      -0.07
      5.50      -0.13      -0.24
      5.39       0.05      -0.23
      5.39      -0.09      -0.23
      5.02      -0.37      -0.08
      5.19      -0.18       0.10
      5.17       0.09       0.11
      5.63       0.18      -0.34
      5.73      -0.02      -0.23
      5.33       0.08      -0.13
      5.20       0.25       0.13
      5.12       0.02       0.12
      5.14       0.17       0.10
      5.03      -0.19       0.22
      5.00      -0.40      -0.12
      5.14      -0.20       0.11
      5.22       0.07       0.14
      5.58       0.19      -0.31
      5.75       0.02      -0.23
      5.38       0.03      -0.16
      5.20       0.29       0.13
      5.11      -0.01       0.17
      5.15       0.23       0.05
      5.02      -0.22       0.22
      4.99      -0.43      -0.16
      5.10      -0.21       0.12
      5.27       0.05       0.16
      5.54       0.21      -0.28
      5.77       0.07      -0.24
      5.43      -0.01      -0.18
      5.19       0.32       0.12
      5.11      -0.02       0.20
      5.16       0.25       0.02
      5.02      -0.20       0.22
      5.00      -0.39      -0.12
      5.08      -0.23       0.11
      5.29       0.01       0.15
      5.44       0.20      -0.21
      5.77       0.08      -0.28
      5.48      -0.04      -0.19
      5.19       0.30       0.08
      5.14       0.02       0.18
      5.04       0.06      -0.20
      5.45       0.28       0.04
      5.59      -0.02      -0.08
      5.47      -0.21      -0.06
      5.53      -0.03       0.07
      5.20      -0.02       0.03
      5.17      -0.12       0.38
      5.08      -0.09       0.16
      5.07      -0.04      -0.13
      4.97       0.20      -0.20
      4.98       0.06      -0.25
      5.40       0.24       0.06
      5.61       0.02      -0.05
      5.49      -0.19      -0.07
      5.58      -0.07       0.11
      5.22      -0.04      -0.02
      5.19      -0.08       0.37
      5.07      -0.12       0.20
      5.02      -0.00      -0.08
      5.03       0.20      -0.27
      4.93       0.06      -0.29
      5.34       0.19       0.07
      5.63       0.05      -0.02
      5.50      -0.17      -0.08
      5.62      -0.10       0.15
      5.25      -0.05      -0.06
      5.19      -0.05       0.35
      5.06      -0.15       0.24
      5.00       0.02      -0.05
      5.07       0.16      -0.30
      4.90       0.08      -0.26
      5.30       0.16       0.04
      5.62       0.12      -0.01
      5.51      -0.15      -0.10
      5.58      -0.14       0.11
      5.28      -0.02      -0.05
      5.18      -0.03       0.31
      5.08      -0.16       0.28
      4.86       0.28      -0.38
      5.29       0.38      -0.04
      5.53       0.07       0.01
      5.43      -0.17      -0.12
      5.50       0.13       0.13
      5.38      -0.14       0.16
      5.18      -0.33       0.42
      5.39      -0.43       0.15
      5.14       0.01       0.01
      4.91       0.20      -0.26
      4.84       0.29      -0.41
      5.24       0.34      -0.11
      5.52       0.10       0.02
      5.44      -0.22      -0.13
      5.48       0.14       0.08
      5.36      -0.06       0.20
      5.22      -0.34       0.40
      5.39      -0.44       0.17
      5.18       0.01       0.06
      4.93       0.18      -0.22
      4.82       0.31      -0.43
      5.19       0.31      -0.18
      5.50       0.13       0.02
      5.45      -0.27      -0.14
      5.46       0.14       0.04
      5.35       0.01       0.23
      5.27      -0.35       0.37
      5.36      -0.45       0.21
      5.22      -0.03       0.09
      4.95       0.15      -0.19
      4.82       0.30      -0.43
      5.14       0.30      -0.21
      5.48       0.19       0.04
      5.47      -0.22      -0.12
      5.45       0.11       0.01
      5.40       0.03       0.24
      5.30      -0.36       0.30
      5.29      -0.41       0.27
      5.06       0.03      -0.09
      5.55       0.29      -0.07
      5.37       0.23      -0.17
      5.41       0.12      -0.29
      5.44       0.06      -0.07
      5.47       0.07       0.09
      5.26       0.07       0.38
      4.99      -0.42       0.32
      4.97      -0.20       0.22
      5.04      -0.22      -0.27
      5.06      -0.01      -0.10
      5.52       0.27      -0.10
      5.36       0.21      -0.19
      5.40       0.17      -0.29
      5.42       0.01      -0.12
      5.47       0.05       0.10
      5.36       0.13       0.41
      5.00      -0.36       0.27
      4.96      -0.20       0.32
      5.03      -0.22      -0.24
      5.06      -0.04      -0.11
      5.48       0.26      -0.13
      5.34       0.18      -0.21
      5.39       0.21      -0.30
      5.39      -0.04      -0.17
      5.47       0.04       0.11