# vtk DataFile Version 3.0
Low resolution, disturbed wind of XY Slice at time = 484 seconds.
ASCII
DATASET STRUCTURED_POINTS
DIMENSIONS   164    49     1
ORIGIN     -88.00    -251.00      90.00
SPACING      12.03      10.10      10.00
POINT_DATA            8036
VECTORS Velocity float
      7.73       0.16      -0.31
      7.91      -0.29       0.21
      8.40      -0.02       0.23
      7.81       0.45      -0.37
      8.02      -0.23       0.36
      8.45      -0.00       0.06
      8.04       0.18      -0.23
      7.60      -0.14      -0.34
      7.69      -0.05       0.22
      8.42      -0.15       0.03
      7.56       0.20      -0.13
      7.96      -0.45       0.35
      8.44       0.09       0.19
      7.91       0.49      -0.37
      7.89       0.02       0.22
      8.26      -0.02       0.11
      8.05      -0.05      -0.19
      7.74      -0.02      -0.43
      7.79      -0.11       0.16
      8.41      -0.17       0.15
      7.59       0.28      -0.27
      8.04      -0.52       0.55
      8.55       0.08       0.03
      7.88       0.38      -0.31
      7.68       0.23       0.17
      8.03      -0.00       0.15
      8.05      -0.26      -0.15
      7.82       0.15      -0.40
      7.89      -0.21       0.15
      8.40      -0.10       0.23
      7.72       0.39      -0.35
      8.04      -0.36       0.47
      8.50       0.03       0.03
      7.99       0.24      -0.26
      7.62      -0.02      -0.18
      7.79      -0.03       0.20
      8.31      -0.19      -0.03
      7.62       0.18      -0.19
      7.93      -0.39       0.28
      8.40       0.07       0.24
      7.92       0.52      -0.39
      7.99      -0.08       0.24
      8.37      -0.03       0.09
      8.07       0.07      -0.21
      7.66      -0.11      -0.42
      7.73      -0.08       0.19
      8.41      -0.16       0.10
      7.58       0.25      -0.21
      8.00      -0.49       0.46
      8.50       0.08       0.10
      7.89       0.43      -0.34
      7.77       0.14       0.19
      8.13      -0.01       0.13
      8.03      -0.19      -0.18
      7.84       0.09      -0.45
      7.86      -0.15       0.12
      8.40      -0.17       0.22
      7.63       0.33      -0.33
      8.06      -0.49       0.57
      8.55       0.06       0.00
      7.93       0.31      -0.28
      7.64       0.11      -0.02
      7.90      -0.02       0.18
      8.19      -0.22      -0.08
      7.71       0.17      -0.28
      7.91      -0.31       0.22
      8.40      -0.01       0.24
      7.83       0.46      -0.37
      8.02      -0.20       0.34
      8.44      -0.01       0.07
      8.06       0.16      -0.23
      7.60      -0.17      -0.38
      7.67      -0.05       0.22
      8.41      -0.15       0.04
      7.56       0.21      -0.15
      7.97      -0.45       0.37
      8.45       0.09       0.17
      7.91       0.47      -0.36
      7.87       0.04       0.21
      8.24      -0.02       0.11
      8.05      -0.08      -0.19
      7.76       0.00      -0.43
      7.80      -0.12       0.15
      8.41      -0.17       0.17
      7.59       0.29      -0.28
      8.04      -0.53       0.57
      8.56       0.08       0.01
      7.87       0.37      -0.31
      7.66       0.23       0.15
      8.00      -0.01       0.16
      8.08      -0.25      -0.13
      7.80       0.15      -0.38
      7.89      -0.23       0.17
      8.40      -0.08       0.23
      7.74       0.40      -0.35
      8.04      -0.33       0.44
      8.49       0.02       0.04
      8.00       0.23      -0.25
      7.62      -0.05      -0.22
      7.77      -0.04       0.20
      8.33      -0.18      -0.01
      7.60       0.19      -0.16
      7.93      -0.41       0.29
      8.40       0.09       0.25
      7.92       0.52      -0.39
      7.97      -0.05       0.24
      8.34      -0.03       0.10
      8.07       0.04      -0.21
      7.68      -0.09      -0.42
      7.75      -0.09       0.18
      8.41      -0.16       0.11
      7.58       0.25      -0.22
      8.01      -0.50       0.48
      8.51       0.08       0.08
      7.89       0.42      -0.33
      7.75       0.16       0.19
      8.11      -0.01       0.14
      8.02      -0.22      -0.17
      7.86       0.12      -0.45
      7.88      -0.15       0.11
      8.40      -0.15       0.22
      7.65       0.34      -0.34
      8.05      -0.46       0.55
      8.54       0.05       0.01
      7.94       0.29      -0.28
      7.64       0.08      -0.06
      7.87      -0.02       0.18
      8.22      -0.21      -0.07
      7.69       0.17      -0.26
      7.92      -0.33       0.24
      8.40       0.01       0.24
      7.85       0.48      -0.38
      8.01      -0.17       0.31
      8.42      -0.02       0.07
      8.07       0.15      -0.22
      7.60      -0.18      -0.41
      7.69      -0.06       0.21
      8.41      -0.16       0.06
      7.57       0.22      -0.16
      7.97      -0.46       0.40
      8.46       0.09       0.16
      7.91       0.46      -0.36
      7.85       0.07       0.21
      8.21      -0.02       0.12
      8.04      -0.11      -0.19
      7.78       0.03      -0.44
      7.82      -0.12       0.14
      8.41      -0.17       0.18
      7.60       0.30      -0.30
      8.05      -0.54       0.59
      8.58       0.08      -0.01
      7.88       0.36      -0.30
      7.66       0.20       0.10
      7.98      -0.01       0.16
      8.11      -0.24      -0.12
      7.78       0.15      -0.35
      7.90      -0.25       0.18
      8.40      -0.06       0.23
      7.76       0.42      -0.36
      8.03      -0.30       0.41
      8.47       0.01       0.05
      8.02       0.21      -0.25
      7.61      -0.08      -0.26
      7.74      -0.04       0.21
      7.99      -0.01      -0.07
      7.76       0.15      -0.24
      8.17      -0.03       0.19
      7.80      -0.14       0.03
      7.93       0.03      -0.16
      8.08       0.04       0.26
      8.16      -0.18      -0.08
      8.04      -0.17      -0.02
      7.97       0.29      -0.13
      8.18      -0.07       0.09
      7.90       0.09       0.01
      7.76       0.16      -0.24
      8.17       0.02       0.21
      7.79      -0.23      -0.04
      7.93      -0.02      -0.01
      8.05       0.17       0.22
      8.22      -0.11       0.01
      8.06      -0.13      -0.09
      7.86       0.18      -0.20
      8.19      -0.07       0.12
      7.85       0.00       0.07
      7.87       0.07      -0.25
      8.21       0.11       0.14
      7.81      -0.30      -0.13
      7.91      -0.11       0.20
      8.06       0.42       0.08
      8.20      -0.07       0.10
      8.03      -0.06      -0.10
      7.78       0.12      -0.23
      8.18      -0.05       0.17
      7.81      -0.09       0.06
      7.92       0.04      -0.20
      8.14       0.07       0.21
      8.04      -0.22      -0.10
      8.00      -0.15       0.06
      8.00       0.33      -0.07
      8.18      -0.07       0.09
      7.94       0.06      -0.02
      7.74       0.17      -0.24
      8.16      -0.01       0.23
      7.79      -0.20      -0.00
      7.93       0.03      -0.11
      8.04       0.06       0.28
      8.23      -0.13      -0.04
      8.06      -0.16      -0.07
      7.91       0.23      -0.17
      8.18      -0.07       0.11
      7.87       0.04       0.04
      7.82       0.11      -0.25
      8.20       0.07       0.17
      7.81      -0.27      -0.09
      7.92      -0.07       0.11
      8.06       0.32       0.14
      8.21      -0.09       0.06
      8.05      -0.10      -0.11
      7.80       0.12      -0.23
      8.19      -0.06       0.14
      7.82      -0.05       0.09
      7.92       0.04      -0.24
      8.19       0.11       0.15
      7.92      -0.27      -0.12
      7.96      -0.14       0.13
      8.03       0.37       0.00
      8.19      -0.07       0.09
      7.98       0.00      -0.06
      7.76       0.15      -0.24
      8.17      -0.03       0.20
      7.80      -0.15       0.02
      7.93       0.03      -0.16
      8.07       0.03       0.27
      8.19      -0.17      -0.08
      8.05      -0.17      -0.04
      7.96       0.28      -0.15
      8.18      -0.07       0.09
      7.90       0.08       0.02
      7.77       0.15      -0.24
      8.18       0.03       0.21
      7.80      -0.24      -0.05
      7.92      -0.03       0.01
      8.05       0.20       0.20
      8.22      -0.11       0.02
      8.05      -0.13      -0.09
      7.85       0.17      -0.20
      8.19      -0.07       0.12
      7.84      -0.01       0.08
      7.89       0.06      -0.25
      8.22       0.12       0.13
      7.82      -0.31      -0.13
      7.92      -0.12       0.21
      8.05       0.41       0.07
      8.20      -0.07       0.09
      8.02      -0.05      -0.09
      7.77       0.13      -0.24
      8.18      -0.04       0.17
      7.81      -0.11       0.05
      7.92       0.03      -0.19
      8.12       0.07       0.22
      8.07      -0.21      -0.10
      8.01      -0.16       0.04
      7.99       0.32      -0.08
      8.18      -0.07       0.09
      7.93       0.07      -0.02
      7.74       0.18      -0.24
      8.16      -0.01       0.24
      7.79      -0.21      -0.01
      7.93       0.02      -0.08
      8.04       0.08       0.26
      8.23      -0.13      -0.03
      8.06      -0.15      -0.07
      7.90       0.22      -0.18
      8.18      -0.07       0.11
      7.87       0.03       0.05
      7.83       0.10      -0.25
      8.20       0.08       0.16
      7.81      -0.28      -0.10
      7.92      -0.08       0.13
      8.06       0.35       0.13
      8.21      -0.08       0.08
      8.05      -0.10      -0.12
      7.79       0.11      -0.23
      8.19      -0.06       0.14
      7.82      -0.06       0.08
      7.92       0.04      -0.23
      8.18       0.10       0.17
      7.95      -0.26      -0.12
      7.97      -0.14       0.11
      8.02       0.36      -0.02
      8.19      -0.07       0.09
      7.97       0.02      -0.05
      7.75       0.16      -0.24
      8.17      -0.02       0.21
      7.80      -0.16       0.02
      7.93       0.03      -0.15
      8.06       0.02       0.28
      8.22      -0.15      -0.07
      8.06      -0.18      -0.05
      7.95       0.27      -0.15
      8.18      -0.07       0.10
      7.89       0.07       0.02
      7.78       0.14      -0.24
      8.18       0.04       0.20
      7.80      -0.25      -0.06
      7.92      -0.04       0.04
      8.05       0.23       0.19
      8.22      -0.10       0.03
      8.05      -0.12      -0.10
      7.84       0.15      -0.21
      8.19      -0.07       0.13
      7.84      -0.02       0.08
      7.90       0.05      -0.26
      8.22       0.13       0.12
      7.84      -0.31      -0.14
      7.93      -0.12       0.19
      8.05       0.40       0.05
      8.20      -0.07       0.09
      8.01      -0.04      -0.09
      7.77       0.13      -0.24
      8.18      -0.04       0.18
      7.81      -0.12       0.05
      7.92       0.03      -0.18
      8.11       0.06       0.23
      8.10      -0.20      -0.09
      8.02      -0.16       0.02
      7.98       0.31      -0.10
      8.24      -0.09       0.08
      8.09       0.14      -0.10
      7.68      -0.17      -0.37
      7.87       0.00       0.42
      8.14       0.01      -0.10
      7.97      -0.27      -0.17
      7.93       0.01       0.11
      8.36       0.04       0.14
      8.13       0.21      -0.05
      7.57       0.17      -0.17
      8.23      -0.02       0.15
      8.06       0.16      -0.01
      7.79      -0.24      -0.41
      7.86      -0.06       0.44
      8.24       0.01       0.02
      8.03      -0.17      -0.06
      7.76       0.09       0.10
      8.30      -0.07       0.08
      8.11       0.17      -0.15
      7.59      -0.01      -0.23
      8.06       0.06       0.24
      8.01       0.18      -0.15
      7.98      -0.32      -0.30
      7.99      -0.09       0.29
      8.29       0.18       0.17
      8.16      -0.07       0.07
      7.58       0.16       0.10
      8.24      -0.13       0.05
      8.10       0.14      -0.16
      7.64      -0.14      -0.32
      7.92       0.04       0.36
      8.08       0.08      -0.14
      7.99      -0.30      -0.21
      7.96      -0.03       0.16
      8.34       0.09       0.15
      8.14       0.12      -0.01
      7.58       0.17      -0.09
      8.24      -0.05       0.12
      8.08       0.16      -0.01
      7.72      -0.21      -0.43
      7.81      -0.05       0.49
      8.21      -0.06      -0.05
      7.97      -0.22      -0.12
      7.85       0.05       0.08
      8.34      -0.02       0.11
      8.12       0.20      -0.10
      7.59       0.07      -0.20
      8.13       0.03       0.20
      8.03       0.17      -0.09
      7.90      -0.29      -0.35
      7.94      -0.08       0.35
      8.27       0.11       0.10
      8.11      -0.12       0.02
      7.65       0.14       0.11
      8.25      -0.13       0.05
      8.10       0.14      -0.20
      7.61      -0.10      -0.27
      7.97       0.08       0.29
      8.02       0.16      -0.18
      8.02      -0.33      -0.25
      7.99      -0.06       0.21
      8.32       0.14       0.16
      8.15       0.04       0.02
      7.58       0.17      -0.01
      8.24      -0.09       0.09
      8.08       0.15      -0.08
      7.69      -0.18      -0.38
      7.86      -0.01       0.43
      8.16      -0.01      -0.09
      7.97      -0.26      -0.16
      7.92       0.02       0.09
      8.37       0.03       0.13
      8.12       0.22      -0.06
      7.58       0.15      -0.18
      8.21      -0.01       0.16
      8.06       0.17      -0.02
      7.81      -0.25      -0.40
      7.88      -0.06       0.42
      8.24       0.03       0.04
      8.05      -0.16      -0.04
      7.74       0.10       0.10
      8.29      -0.08       0.08
      8.11       0.16      -0.16
      7.60      -0.03      -0.24
      8.04       0.07       0.25
      8.00       0.18      -0.17
      8.00      -0.33      -0.29
      8.01      -0.09       0.27
      8.29       0.19       0.18
      8.16      -0.05       0.06
      7.58       0.16       0.08
      8.24      -0.12       0.06
      8.09       0.14      -0.14
      7.65      -0.14      -0.33
      7.91       0.03       0.37
      8.09       0.06      -0.13
      7.99      -0.29      -0.20
      7.95      -0.02       0.15
      8.34       0.08       0.15
      8.13       0.15      -0.02
      7.57       0.17      -0.11
      8.24      -0.04       0.13
      8.07       0.16       0.00
      7.73      -0.22      -0.44
      7.82      -0.05       0.48
      8.22      -0.04      -0.03
      7.99      -0.21      -0.10
      7.83       0.06       0.09
      8.33      -0.03       0.10
      8.12       0.19      -0.11
      7.59       0.05      -0.21
      8.11       0.03       0.21
      8.03       0.18      -0.10
      7.92      -0.30      -0.34
      7.95      -0.08       0.34
      8.27       0.13       0.12
      8.12      -0.11       0.03
      7.62       0.15       0.12
      8.24      -0.14       0.04
      8.10       0.13      -0.21
      7.62      -0.11      -0.28
      7.96       0.07       0.31
      8.03       0.14      -0.17
      8.01      -0.32      -0.24
      7.98      -0.05       0.20
      8.32       0.13       0.16
      8.14       0.06       0.01
      7.58       0.17      -0.03
      8.24      -0.08       0.10
      8.08       0.15      -0.06
      7.69      -0.19      -0.39
      7.85      -0.02       0.45
      8.17      -0.03      -0.08
      7.96      -0.25      -0.15
      7.91       0.03       0.08
      8.37       0.01       0.13
      8.12       0.22      -0.07
      7.58       0.13      -0.18
      8.19       0.00       0.17
      8.05       0.17      -0.04
      7.83      -0.26      -0.39
      7.89      -0.07       0.40
      8.25       0.05       0.05
      8.06      -0.15      -0.03
      7.71       0.11       0.10
      8.28      -0.09       0.07
      8.11       0.16      -0.17
      7.60      -0.05      -0.25
      8.02       0.07       0.26
      8.00       0.19      -0.18
      8.03      -0.34      -0.28
      8.01      -0.09       0.25
      8.30       0.18       0.17
      8.15      -0.02       0.05
      7.58       0.16       0.06
      8.24      -0.11       0.07
      8.09       0.14      -0.13
      7.66      -0.15      -0.34
      7.90       0.02       0.39
      8.11       0.04      -0.12
      7.98      -0.28      -0.19
      7.94      -0.01       0.13
      8.35       0.06       0.14
      8.13       0.17      -0.03
      7.77       0.22       0.12
      8.20      -0.26       0.03
      7.96      -0.12      -0.19
      7.89       0.08       0.24
      7.77       0.03       0.10
      8.27      -0.16      -0.28
      8.09      -0.01       0.07
      7.79       0.26      -0.03
      8.20      -0.05       0.12
      8.06       0.01      -0.25
      7.85       0.24       0.18
      8.15      -0.17       0.06
      7.98      -0.23      -0.18
      7.85       0.05       0.33
      7.69       0.11       0.09
      8.30      -0.08      -0.26
      8.13      -0.04      -0.09
      7.77       0.22       0.01
      8.20      -0.20       0.06
      8.01      -0.01      -0.21
      7.97       0.20       0.14
      7.97      -0.02       0.06
      8.08      -0.33      -0.12
      7.97       0.10       0.37
      7.67       0.27       0.03
      8.25      -0.05      -0.14
      8.13      -0.05      -0.21
      7.75       0.20       0.08
      8.20      -0.29       0.01
      7.97      -0.07      -0.19
      7.96       0.12       0.19
      7.82       0.03       0.08
      8.21      -0.23      -0.21
      8.05       0.03       0.18
      7.75       0.26      -0.01
      8.22      -0.05       0.04
      8.09      -0.01      -0.24
      7.81       0.24       0.16
      8.19      -0.22       0.06
      7.96      -0.18      -0.19
      7.81       0.03       0.31
      7.71       0.04       0.11
      8.32      -0.09      -0.32
      8.12      -0.04      -0.03
      7.79       0.24      -0.02
      8.20      -0.13       0.09
      8.03       0.00      -0.23
      7.92       0.22       0.16
      8.05      -0.09       0.06
      8.04      -0.28      -0.15
      7.92       0.08       0.35
      7.68       0.20       0.06
      8.27      -0.07      -0.19
      8.13      -0.05      -0.16
      7.74       0.20       0.05
      8.21      -0.30       0.01
      7.98      -0.02      -0.18
      8.02       0.16       0.13
      7.88       0.04       0.06
      8.14      -0.30      -0.15
      8.02       0.07       0.28
      7.71       0.27       0.01
      8.23      -0.05      -0.04
      8.11      -0.03      -0.22
      7.78       0.22       0.12
      8.19      -0.25       0.04
      7.96      -0.13      -0.19
      7.87       0.07       0.26
      7.75       0.03       0.10
      8.29      -0.14      -0.30
      8.10      -0.02       0.05
      7.80       0.25      -0.04
      8.20      -0.05       0.13
      8.06       0.01      -0.25
      7.86       0.24       0.18
      8.12      -0.15       0.06
      7.99      -0.24      -0.17
      7.87       0.06       0.34
      7.69       0.13       0.08
      8.29      -0.08      -0.25
      8.13      -0.05      -0.10
      7.76       0.22       0.02
      8.21      -0.22       0.05
      8.00      -0.01      -0.20
      7.99       0.19       0.13
      7.95      -0.00       0.06
      8.09      -0.34      -0.11
      7.98       0.10       0.37
      7.67       0.28       0.03
      8.25      -0.05      -0.12
      8.13      -0.05      -0.21
      7.75       0.21       0.09
      8.20      -0.28       0.02
      7.97      -0.08      -0.19
      7.94       0.11       0.20
      7.81       0.03       0.09
      8.22      -0.21      -0.23
      8.06       0.02       0.15
      7.76       0.26      -0.02
      8.21      -0.05       0.06
      8.08      -0.00      -0.24
      7.82       0.24       0.17
      8.19      -0.21       0.06
      7.96      -0.20      -0.19
      7.81       0.03       0.32
      7.70       0.06       0.11
      8.32      -0.09      -0.30
      8.12      -0.04      -0.05
      7.78       0.24      -0.01
      8.20      -0.15       0.08
      8.03       0.00      -0.22
      7.93       0.21       0.15
      8.03      -0.07       0.06
      8.05      -0.29      -0.14
      7.93       0.08       0.36
      7.68       0.22       0.05
      8.27      -0.06      -0.18
      8.14      -0.06      -0.18
      7.74       0.20       0.05
      8.21      -0.31      -0.00
      7.97      -0.03      -0.18
      8.00       0.15       0.14
      7.86       0.04       0.07
      8.16      -0.28      -0.17
      8.03       0.06       0.25
      7.72       0.27       0.00
      8.23      -0.05      -0.02
      8.10      -0.02      -0.23
      7.79       0.23       0.13
      8.19      -0.24       0.04
      7.96      -0.15      -0.19
      7.86       0.06       0.27
      7.74       0.03       0.11
      8.31      -0.12      -0.31
      8.11      -0.03       0.02
      7.80       0.25      -0.04
      8.20      -0.07       0.12
      8.05       0.01      -0.24
      7.87       0.23       0.17
      8.10      -0.14       0.06
      8.01      -0.25      -0.16
      7.88       0.06       0.34
      7.69       0.15       0.08
      8.29      -0.07      -0.23
      8.13      -0.05      -0.12
      7.76       0.22       0.02
      8.21      -0.24       0.04
      7.99      -0.01      -0.20
      8.00       0.18       0.13
      7.93       0.02       0.06
      8.10      -0.35      -0.11
      7.99       0.10       0.36
      7.68       0.28       0.02
      8.24      -0.05      -0.10
      8.12      -0.04      -0.21
      7.76       0.21       0.10
      8.20      -0.27       0.02
      7.97      -0.09      -0.19
      7.92       0.10       0.21
      7.79       0.03       0.09
      8.24      -0.19      -0.25
      8.07       0.01       0.12
      7.77       0.26      -0.02
      8.21      -0.05       0.08
      7.79      -0.15       0.06
      8.36      -0.01      -0.02
      8.10       0.02       0.13
      7.93       0.15      -0.20
      8.08      -0.21      -0.14
      8.04      -0.02       0.21
      7.76       0.15      -0.11
      7.74      -0.22      -0.03
      8.33      -0.01       0.31
      7.99       0.13      -0.07
      7.68       0.13       0.02
      8.29       0.02      -0.02
      8.13       0.01       0.13
      7.97       0.12      -0.34
      8.00      -0.26      -0.19
      8.10      -0.06       0.22
      7.73       0.24      -0.05
      7.80      -0.29       0.04
      8.38      -0.04       0.12
      8.02       0.09       0.07
      7.78       0.16       0.02
      8.16      -0.03      -0.05
      8.06       0.09       0.17
      7.91       0.09      -0.35
      7.86      -0.24      -0.20
      8.21      -0.06       0.23
      7.75       0.31      -0.04
      7.85      -0.28       0.08
      8.39      -0.04      -0.02
      8.07       0.05       0.14
      7.88       0.16      -0.10
      8.10      -0.14      -0.11
      8.04       0.03       0.20
      7.81       0.13      -0.20
      7.78      -0.23      -0.09
      8.29      -0.03       0.29
      7.91       0.18      -0.06
      7.71       0.02       0.03
      8.33       0.02      -0.02
      8.14      -0.01       0.12
      7.99       0.13      -0.32
      8.06      -0.27      -0.18
      8.05      -0.06       0.22
      7.72       0.19      -0.06
      7.76      -0.25       0.01
      8.35      -0.02       0.22
      8.00       0.11       0.01
      7.73       0.15       0.02
      8.22      -0.01      -0.04
      8.09       0.05       0.15
      7.94       0.10      -0.34
      7.92      -0.25      -0.20
      8.16      -0.06       0.22
      7.73       0.29      -0.04
      7.86      -0.34       0.08
      8.40      -0.05      -0.00
      8.04       0.07       0.15
      7.83       0.17       0.00
      8.11      -0.08      -0.07
      8.04       0.08       0.19
      7.86       0.10      -0.28
      7.81      -0.23      -0.14
      8.26      -0.04       0.26
      7.84       0.24      -0.05
      7.77      -0.11       0.05
      8.36      -0.01      -0.02
      8.11       0.02       0.13
      7.94       0.15      -0.22
      8.08      -0.22      -0.15
      8.04      -0.03       0.21
      7.74       0.16      -0.09
      7.73      -0.22      -0.02
      8.33      -0.01       0.31
      7.99       0.13      -0.06
      7.69       0.13       0.02
      8.28       0.01      -0.03
      8.12       0.02       0.13
      7.96       0.12      -0.34
      7.98      -0.26      -0.19
      8.12      -0.06       0.22
      7.73       0.25      -0.05
      7.82      -0.30       0.05
      8.38      -0.04       0.10
      8.02       0.09       0.09
      7.79       0.17       0.02
      8.15      -0.04      -0.05
      8.05       0.10       0.17
      7.91       0.08      -0.35
      7.85      -0.24      -0.20
      8.22      -0.05       0.23
      7.77       0.29      -0.04
      7.83      -0.25       0.08
      8.38      -0.03      -0.02
      8.08       0.04       0.14
      7.89       0.16      -0.12
      8.09      -0.16      -0.11
      8.04       0.02       0.20
      7.80       0.13      -0.18
      7.77      -0.22      -0.08
      8.30      -0.02       0.29
      7.93       0.17      -0.07
      7.69       0.06       0.03
      8.33       0.02      -0.02
      8.15      -0.02       0.11
      7.99       0.13      -0.33
      8.04      -0.27      -0.18
      8.07      -0.06       0.22
      7.72       0.20      -0.05
      7.77      -0.26       0.02
      8.36      -0.03       0.19
      8.01       0.11       0.03
      7.74       0.15       0.02
      8.21      -0.02      -0.04
      8.08       0.06       0.15
      7.93       0.10      -0.35
      7.91      -0.25      -0.20
      8.18      -0.06       0.22
      7.73       0.30      -0.04
      7.87      -0.35       0.09
      8.40      -0.06      -0.02
      8.04       0.07       0.15
      7.84       0.17      -0.02
      8.11      -0.10      -0.08
      8.04       0.06       0.19
      7.85       0.11      -0.26
      7.80      -0.23      -0.13
      8.27      -0.04       0.27
      7.86       0.22      -0.06
      7.75      -0.08       0.05
      8.35      -0.00      -0.02
      8.11       0.01       0.13
      7.95       0.14      -0.25
      8.07      -0.24      -0.16
      8.04      -0.05       0.22
      7.73       0.16      -0.07
      7.73      -0.22      -0.01
      8.34      -0.01       0.29
      7.99       0.12      -0.04
      7.70       0.13       0.02
      8.26       0.01      -0.03
      8.11       0.03       0.14
      7.96       0.11      -0.34
      7.97      -0.26      -0.19
      8.13      -0.06       0.22
      7.73       0.26      -0.05
      7.83      -0.31       0.06
      8.39      -0.04       0.07
      8.03       0.09       0.11
      7.80       0.17       0.02
      8.13      -0.05      -0.05
      8.04       0.11       0.18
      7.90       0.08      -0.34
      7.84      -0.24      -0.18
      8.23      -0.05       0.24
      7.79       0.28      -0.04
      7.81      -0.21       0.07
      8.38      -0.03      -0.02
      8.08       0.03       0.14
      7.90       0.16      -0.15
      8.09      -0.18      -0.12
      8.04       0.00       0.20
      7.78       0.14      -0.15
      7.76      -0.22      -0.06
      8.31      -0.02       0.30
      8.21       0.27      -0.18
      8.07      -0.06      -0.09
      7.92      -0.21       0.17
      8.07       0.12       0.18
      7.90      -0.04      -0.22
      7.85      -0.43       0.29
      7.97       0.15       0.10
      8.15       0.52      -0.30
      8.24      -0.31      -0.16
      7.72      -0.01       0.18
      8.20       0.17      -0.10
      7.94       0.02      -0.14
      7.94      -0.36       0.15
      7.99       0.17       0.14
      7.93       0.14      -0.24
      7.94      -0.36       0.27
      7.90       0.13       0.08
      8.19       0.43      -0.26
      8.23      -0.22      -0.11
      7.79      -0.04       0.21
      8.18       0.07       0.08
      7.96      -0.08      -0.21
      7.81      -0.42       0.22
      7.94       0.14       0.01
      8.03       0.42      -0.30
      8.04      -0.26       0.20
      7.80       0.08       0.02
      8.22       0.31      -0.21
      8.15      -0.11      -0.08
      7.88      -0.13       0.20
      8.12       0.08       0.18
      7.93      -0.08      -0.23
      7.82      -0.43       0.27
      7.95       0.15       0.06
      8.11       0.49      -0.30
      8.18      -0.29      -0.05
      7.74       0.02       0.13
      8.21       0.21      -0.15
      7.98       0.01      -0.11
      7.97      -0.32       0.13
      8.02       0.18       0.19
      7.88       0.01      -0.22
      7.89      -0.41       0.30
      7.95       0.15       0.11
      8.18       0.48      -0.28
      8.24      -0.27      -0.15
      7.76      -0.03       0.20
      8.19       0.11      -0.00
      7.95      -0.04      -0.18
      7.87      -0.39       0.19
      7.96       0.15       0.06
      7.98       0.29      -0.28
      7.99      -0.30       0.23
      7.84       0.11       0.03
      8.21       0.36      -0.23
      8.22      -0.17      -0.07
      7.84      -0.05       0.23
      8.17       0.03       0.17
      7.95      -0.11      -0.24
      7.79      -0.43       0.25
      7.94       0.14       0.02
      8.08       0.47      -0.30
      8.12      -0.28       0.06
      7.77       0.05       0.08
      8.21       0.26      -0.17
      8.05      -0.04      -0.10
      7.93      -0.23       0.16
      8.06       0.14       0.18
      7.90      -0.03      -0.22
      7.84      -0.43       0.30
      7.95       0.15       0.12
      8.14       0.52      -0.29
      8.23      -0.31      -0.17
      7.70      -0.02       0.19
      8.17       0.15      -0.08
      7.91      -0.00      -0.14
      7.89      -0.37       0.16
      7.95       0.16       0.13
      7.91       0.16      -0.25
      7.92      -0.36       0.27