# vtk DataFile Version 3.0
Low resolution, disturbed wind of XZ Slice at time = 93.5 seconds.
ASCII
DATASET STRUCTURED_POINTS
DIMENSIONS   164     1    17
ORIGIN     -88.00       0.00      11.00
SPACING      12.03      10.10      10.00
POINT_DATA            2788
VECTORS Velocity float
      5.07       0.14       0.11
      5.42       0.27       0.17
      5.27      -0.19      -0.08
      5.01      -0.05      -0.34
      5.41       0.13       0.07
      5.28       0.22       0.19
      5.28      -0.25      -0.32
      4.37      -0.66       0.14
      4.33      -0.32       0.55
      4.12      -0.79       0.04
      4.01      -0.53       0.13
      4.45      -0.32       0.32
      4.28      -0.67       0.23
      4.09      -0.67      -0.25
      4.46      -0.55       0.25
      4.34      -0.30       0.37
      4.22      -0.88      -0.01
      4.22      -0.50       0.27
      4.42      -0.23       0.42
      4.29      -0.72      -0.03
      4.12      -0.49      -0.02
      4.46      -0.25       0.19
      4.38      -0.43       0.34
      4.40      -0.70      -0.29
      4.57      -0.64       0.21
      4.49      -0.26       0.40
      4.24      -0.90       0.10
      4.26      -0.27       0.32
      4.57      -0.16       0.31
      4.47      -0.63      -0.01
      4.24      -0.46      -0.17
      4.63      -0.24       0.16
      4.60      -0.20       0.32
      4.81      -0.52      -0.27
      4.99      -0.36       0.09
      5.14       0.10       0.40
      5.00      -0.37      -0.07
      4.98       0.03       0.06
      5.44       0.22       0.20
      5.27      -0.19       0.02
      5.00      -0.09      -0.38
      5.45       0.05       0.11
      5.30       0.24       0.21
      5.25      -0.31      -0.23
      5.22      -0.08       0.06
      5.38       0.26       0.34
      5.20      -0.22      -0.14
      5.04       0.01      -0.09
      5.42       0.23       0.11
      5.29      -0.04       0.15
      5.20      -0.19      -0.40
      5.44      -0.12       0.10
      5.31       0.19       0.27
      5.07      -0.46      -0.05
      5.04       0.09       0.24
      5.22       0.21       0.25
      5.08      -0.33      -0.14
      4.79      -0.17      -0.17
      5.04       0.04       0.10
      4.92      -0.08       0.31
      5.25      -0.27      -0.39
      5.38      -0.17       0.04
      5.36       0.23       0.31
      5.11      -0.35      -0.08
      5.06       0.13       0.10
      5.42       0.27       0.17
      5.27      -0.18      -0.06
      5.01      -0.06      -0.36
      5.42       0.12       0.07
      5.28       0.23       0.19
      5.28      -0.26      -0.31
      5.25      -0.16      -0.00
      5.38       0.26       0.38
      5.15      -0.21      -0.14
      5.03       0.04      -0.05
      5.45       0.24       0.14
      5.28      -0.10       0.07
      5.10      -0.13      -0.42
      5.44      -0.02       0.08
      5.31       0.24       0.22
      5.17      -0.36      -0.16
      5.16       0.06       0.13
      5.36       0.29       0.25
      5.23      -0.21      -0.19
      5.03       0.01      -0.19
      5.36       0.24       0.03
      5.28       0.08       0.20
      5.31      -0.22      -0.44
      5.43      -0.17       0.06
      5.35       0.21       0.27
      5.09      -0.42      -0.05
      5.08       0.17       0.16
      5.39       0.28       0.17
      5.27      -0.19      -0.13
      5.02      -0.04      -0.31
      5.39       0.16       0.05
      5.28       0.19       0.20
      5.29      -0.25      -0.35
      5.31      -0.16       0.01
      5.37       0.25       0.35
      5.13      -0.26      -0.11
      5.04       0.07       0.01
      5.47       0.25       0.17
      5.28      -0.17       0.02
      5.01      -0.09      -0.41
      5.45       0.05       0.09
      5.29       0.25       0.19
      5.22      -0.31      -0.23
      5.20      -0.05       0.06
      5.37       0.28       0.31
      5.20      -0.21      -0.17
      5.03       0.02      -0.13
      5.40       0.24       0.08
      5.28      -0.00       0.15
      5.22      -0.18      -0.43
      5.44      -0.11       0.07
      5.33       0.22       0.24
      5.10      -0.43      -0.07
      5.11       0.18       0.20
      5.35       0.30       0.17
      5.26      -0.20      -0.19
      5.03      -0.01      -0.26
      5.35       0.21       0.02
      5.28       0.14       0.21
      5.31      -0.24      -0.39
      5.36      -0.17       0.03
      5.36       0.23       0.32
      5.11      -0.33      -0.09
      5.06       0.11       0.08
      5.43       0.26       0.17
      5.27      -0.18      -0.05
      5.00      -0.06      -0.37
      5.43       0.10       0.08
      5.28       0.24       0.19
      5.27      -0.26      -0.30
      5.24      -0.15      -0.00
      5.38       0.26       0.37
      5.16      -0.21      -0.14
      5.03       0.04      -0.07
      5.44       0.24       0.13
      5.28      -0.08       0.09
      5.13      -0.14      -0.42
      5.44      -0.04       0.08
      5.32       0.23       0.22
      5.16      -0.38      -0.14
      5.15       0.08       0.14
      5.36       0.29       0.23
      5.24      -0.20      -0.19
      5.04       0.00      -0.21
      5.34       0.25       0.01
      5.28       0.10       0.22
      5.32      -0.23      -0.43
      5.42      -0.17       0.05
      5.35       0.22       0.28
      5.09      -0.40      -0.06
      5.08       0.16       0.15
      5.40       0.28       0.17
      5.27      -0.19      -0.11
      5.02      -0.04      -0.32
      5.40       0.15       0.05
      5.28       0.20       0.20
      5.29      -0.25      -0.34
      5.29      -0.16       0.01
      5.37       0.25       0.36
      6.01       0.05       0.28
      6.06       0.18       0.07
      5.99      -0.04      -0.33
      5.78       0.01       0.24
      6.19      -0.02      -0.03
      6.14      -0.00      -0.00
      5.60      -0.09       0.06
      4.93      -0.44       0.29
      4.79      -0.67       0.08
      4.77      -0.88      -0.12
      4.82      -0.68       0.39
      4.93      -0.42       0.25
      4.81      -0.67      -0.04
      4.55      -0.71       0.48
      4.97      -0.70       0.24
      4.99      -0.67       0.11
      4.48      -0.87       0.13
      4.83      -0.50       0.42
      4.88      -0.56       0.18
      4.86      -0.75      -0.19
      4.81      -0.48       0.32
      5.14      -0.46       0.17
      4.90      -0.61       0.08
      4.68      -0.56       0.38
      5.08      -0.58       0.35
      5.05      -0.62      -0.05
      4.73      -0.91      -0.01
      4.97      -0.47       0.48
      5.03      -0.42       0.23
      4.99      -0.61      -0.21
      4.85      -0.44       0.34
      5.28      -0.49       0.12
      5.17      -0.52       0.12
      4.95      -0.46       0.23
      5.54      -0.19       0.24
      5.71      -0.21      -0.08
      5.72      -0.37      -0.22
      5.93      -0.07       0.27
      6.05       0.20       0.10
      5.99      -0.04      -0.27
      5.72      -0.10       0.33
      6.15      -0.09       0.00
      6.18      -0.02       0.01
      5.60      -0.18       0.02
      5.98       0.14       0.18
      6.02       0.03      -0.04
      5.99      -0.18      -0.32
      5.98       0.05       0.19
      6.20       0.17       0.04
      5.99      -0.03      -0.14
      5.74      -0.04       0.27
      6.11      -0.06       0.15
      6.05      -0.10      -0.12
      5.58      -0.41      -0.08
      5.79      -0.03       0.38
      5.73      -0.11       0.14
      5.58      -0.34      -0.30
      5.37      -0.13       0.25
      5.68      -0.27       0.10
      5.36      -0.40       0.10
      5.00      -0.41       0.31
      6.08       0.06       0.16
      6.07      -0.02      -0.18
      5.85      -0.28      -0.23
      6.02       0.05       0.27
      6.07       0.19       0.07
      5.99      -0.04      -0.33
      5.77      -0.01       0.25
      6.18      -0.03      -0.03
      6.15      -0.00       0.00
      5.59      -0.11       0.05
      5.98       0.16       0.12
      6.03       0.03      -0.11
      6.00      -0.18      -0.32
      6.02       0.02       0.19
      6.15       0.24       0.05
      6.00      -0.01      -0.22
      5.74      -0.04       0.27
      6.15      -0.04       0.06
      6.14      -0.02      -0.10
      5.66      -0.25      -0.07
      5.98       0.13       0.24
      6.01       0.07       0.00
      5.97      -0.12      -0.38
      5.91       0.14       0.13
      6.25       0.13      -0.02
      5.98      -0.02      -0.08
      5.76       0.04       0.20
      6.13       0.01       0.18
      6.09      -0.04      -0.21
      5.78      -0.33      -0.19
      6.00       0.08       0.30
      6.04       0.14       0.07
      5.98      -0.06      -0.36
      5.81       0.07       0.20
      6.22       0.02      -0.03
      6.09      -0.01      -0.02
      5.65      -0.06       0.09
      6.03       0.12       0.14
      6.04       0.01      -0.14
      5.95      -0.23      -0.29
      6.04       0.01       0.22
      6.11       0.26       0.07
      6.00      -0.00      -0.28
      5.72      -0.08       0.31
      6.15      -0.06      -0.00
      6.17      -0.01      -0.03
      5.61      -0.18      -0.02
      5.97       0.15       0.18
      6.02       0.05      -0.05
      5.98      -0.15      -0.35
      5.96       0.09       0.16
      6.20       0.18       0.01
      5.99      -0.01      -0.14
      5.75       0.00       0.23
      6.14      -0.01       0.13
      6.11      -0.04      -0.18
      5.71      -0.33      -0.14
      5.98       0.11       0.32
      6.01       0.09       0.07
      5.96      -0.09      -0.39
      5.85       0.15       0.14
      6.25       0.07      -0.04
      6.03      -0.01      -0.04
      5.70      -0.01       0.14
      6.07       0.07       0.16
      6.06      -0.01      -0.17
      5.87      -0.27      -0.24
      6.02       0.04       0.26
      6.08       0.21       0.07
      5.99      -0.03      -0.32
      5.75      -0.02       0.27
      6.17      -0.04      -0.03
      6.17      -0.00       0.01
      5.58      -0.12       0.04
      5.97       0.17       0.12
      6.02       0.04      -0.10
      6.00      -0.18      -0.33
      6.01       0.03       0.18
      6.16       0.23       0.04
      6.00      -0.01      -0.21
      5.74      -0.03       0.26
      6.15      -0.03       0.07
      6.14      -0.03      -0.11
      5.67      -0.26      -0.09
      5.98       0.13       0.26
      6.01       0.07       0.02
      5.97      -0.12      -0.38
      5.89       0.15       0.13
      6.26       0.12      -0.03
      5.98      -0.02      -0.07
      5.76       0.03       0.19
      6.12       0.02       0.18
      6.08      -0.04      -0.21
      5.80      -0.32      -0.20
      6.00       0.07       0.29
      6.05       0.15       0.07
      5.98      -0.06      -0.35
      5.80       0.05       0.21
      6.21       0.01      -0.03
      6.11      -0.01      -0.01
      5.63      -0.07       0.08
      6.01       0.13       0.13
      6.04       0.02      -0.14
      6.56      -0.23       0.13
      6.46       0.14      -0.15
      6.25       0.01      -0.02
      6.56      -0.20       0.05
      6.64       0.19       0.09
      6.26      -0.01       0.11
      6.64       0.07      -0.11
      5.29      -0.65       0.35
      4.96      -0.67      -0.13
      4.73      -1.04       0.25
      5.11      -1.01       0.35
      5.16      -0.59       0.24
      4.94      -0.64       0.27
      5.20      -0.94       0.19
      5.25      -0.63       0.35
      4.92      -0.78       0.29
      5.26      -0.75       0.08
      5.20      -0.85       0.36
      5.04      -0.63      -0.11
      4.84      -0.88       0.18
      5.20      -0.89       0.32
      5.29      -0.53       0.29
      5.07      -0.48       0.33
      5.28      -0.73       0.07
      5.31      -0.67       0.41
      5.15      -0.59       0.20
      5.32      -0.79       0.02
      5.35      -0.90       0.33
      5.21      -0.55      -0.03
      5.03      -0.70       0.15
      5.37      -0.82       0.26
      5.47      -0.46       0.28
      5.15      -0.55       0.30
      5.58      -0.54       0.05
      5.78      -0.41       0.31
      5.86      -0.20      -0.15
      5.94      -0.42       0.03
      6.36      -0.36       0.18
      6.44       0.10      -0.01
      6.26       0.03       0.05
      6.56      -0.27       0.04
      6.63       0.16       0.11
      6.22      -0.11       0.11
      6.63       0.02      -0.09
      6.52      -0.05       0.17
      6.38       0.09      -0.33
      6.15      -0.22       0.01
      6.51      -0.22       0.14
      6.56       0.15       0.08
      6.32       0.14       0.12
      6.53      -0.14      -0.06
      6.51       0.00       0.21
      6.19      -0.08       0.09
      6.34      -0.25      -0.10
      6.19      -0.45       0.24
      5.84      -0.25      -0.17
      5.49      -0.52       0.08
      5.69      -0.65       0.27
      5.66      -0.38       0.30
      5.29      -0.43       0.34
      5.48      -0.62       0.07
      6.55       0.03       0.19
      6.39       0.11      -0.14
      6.39      -0.17      -0.10
      6.55      -0.23       0.13
      6.47       0.15      -0.13
      6.27       0.03      -0.01
      6.57      -0.21       0.04
      6.65       0.20       0.08
      6.25      -0.03       0.10
      6.65       0.08      -0.11
      6.53       0.04       0.15
      6.40       0.14      -0.38
      6.16      -0.23       0.01
      6.53      -0.21       0.12
      6.57       0.20       0.02
      6.33       0.14       0.05
      6.58      -0.16      -0.04
      6.62       0.13       0.13
      6.30      -0.01       0.06
      6.62      -0.01      -0.15
      6.55      -0.12       0.14
      6.38       0.10      -0.32
      6.17      -0.15      -0.04
      6.51      -0.16       0.11
      6.59       0.18       0.09
      6.35       0.23       0.13
      6.55      -0.02      -0.15
      6.56       0.02       0.21
      6.39       0.09      -0.03
      6.51      -0.13      -0.16
      6.57      -0.23       0.13
      6.42       0.12      -0.21
      6.22      -0.03      -0.04
      6.54      -0.18       0.07
      6.63       0.19       0.09
      6.28       0.06       0.12
      6.62       0.05      -0.12
      6.54       0.03       0.17
      6.40       0.13      -0.28
      6.24      -0.21      -0.03
      6.54      -0.22       0.12
      6.55       0.19      -0.03
      6.32       0.10       0.02
      6.59      -0.22       0.00
      6.65       0.18       0.09
      6.25      -0.06       0.08
      6.64       0.04      -0.12
      6.54      -0.04       0.14
      6.39       0.12      -0.35
      6.16      -0.18      -0.02
      6.52      -0.18       0.11
      6.58       0.19       0.06
      6.34       0.19       0.10
      6.56      -0.08      -0.10
      6.59       0.06       0.18
      6.36       0.05       0.02
      6.59      -0.08      -0.19
      6.57      -0.22       0.14
      6.36       0.08      -0.29
      6.18      -0.09      -0.06
      6.51      -0.16       0.09
      6.61       0.18       0.10
      6.32       0.16       0.13
      6.59       0.02      -0.14
      6.55       0.03       0.19
      6.39       0.11      -0.17
      6.36      -0.18      -0.09
      6.55      -0.23       0.13
      6.49       0.16      -0.11
      6.28       0.04      -0.00
      6.57      -0.21       0.03
      6.65       0.20       0.08
      6.24      -0.06       0.10
      6.66       0.09      -0.10
      6.53       0.03       0.15
      6.40       0.14      -0.37
      6.16      -0.22       0.00
      6.53      -0.21       0.12
      6.57       0.19       0.02
      6.33       0.15       0.06
      6.58      -0.14      -0.05
      6.62       0.12       0.14
      6.31       0.00       0.05
      6.61      -0.02      -0.16
      6.56      -0.14       0.14
      6.37       0.10      -0.32
      6.17      -0.14      -0.05
      6.51      -0.16       0.11
      6.59       0.17       0.10
      6.35       0.24       0.14
      6.56      -0.01      -0.15
      6.56       0.02       0.20
      6.39       0.10      -0.06
      6.48      -0.14      -0.15
      6.56      -0.23       0.13
      6.43       0.12      -0.19
      6.23      -0.02      -0.03
      6.55      -0.19       0.06
      6.63       0.19       0.09
      6.27       0.04       0.11
      6.63       0.06      -0.12
      6.53       0.04       0.16
      6.40       0.13      -0.31
      6.75      -0.02      -0.32
      6.80       0.08      -0.00
      6.95      -0.07       0.06
      7.02       0.18      -0.10
      6.49       0.01      -0.05
      7.02      -0.15       0.14
      6.96      -0.08       0.19
      6.63      -0.14      -0.24
      5.11      -0.67       0.67
      5.33      -0.99       0.23
      5.23      -0.83      -0.01
      5.19      -0.87       0.10
      5.35      -0.88       0.31
      5.36      -0.79       0.29
      4.83      -0.91       0.15
      5.40      -0.90       0.39
      5.44      -1.00       0.40
      5.12      -0.98      -0.05
      5.23      -0.66       0.53
      5.44      -0.98       0.30
      5.54      -0.65      -0.03
      5.20      -0.77       0.19
      5.45      -0.83       0.43
      5.44      -0.88       0.33
      4.93      -0.86       0.05
      5.41      -0.58       0.42
      5.62      -0.98       0.28
      5.29      -0.84      -0.12
      5.38      -0.65       0.32
      5.57      -0.88       0.30
      5.70      -0.55       0.04
      5.19      -0.72       0.18
      5.61      -0.86       0.39
      5.56      -0.87       0.39
      5.44      -0.76      -0.03
      5.96      -0.26       0.50
      6.43      -0.47       0.11
      6.46      -0.19      -0.21
      6.61      -0.11      -0.07
      6.81      -0.11       0.07
      6.84       0.06       0.05
      6.32      -0.10      -0.02
      6.94      -0.22       0.15
      6.91      -0.17       0.22
      6.61      -0.20      -0.24
      6.70       0.16       0.38
      6.92      -0.17       0.05
      6.92       0.08      -0.24
      6.69      -0.02      -0.06
      6.88      -0.07       0.17
      6.84      -0.09       0.11
      6.23      -0.18      -0.09
      6.60      -0.11       0.25
      6.58      -0.49       0.20
      6.04      -0.51      -0.20
      5.93      -0.37       0.36
      5.93      -0.80       0.31
      5.92      -0.50      -0.04
      5.28      -0.75       0.22
      5.49      -0.91       0.47
      5.41      -0.97       0.40
      6.48      -0.09      -0.21
      6.81       0.22       0.27
      7.01      -0.15       0.02
      6.76      -0.01      -0.31
      6.80       0.07      -0.03
      6.95      -0.05       0.05
      7.00       0.17      -0.08
      6.47       0.01      -0.05
      7.03      -0.16       0.13
      6.97      -0.08       0.20
      6.65      -0.15      -0.24
      6.75       0.25       0.42
      6.96      -0.09      -0.02
      6.87       0.09      -0.27
      6.79       0.03      -0.14
      6.94       0.01       0.07
      6.93       0.07       0.04
      6.41      -0.03      -0.11
      6.96      -0.00       0.14
      7.02      -0.14       0.13
      6.68      -0.11      -0.31
      6.77       0.18       0.26
      6.96      -0.15       0.07
      7.07       0.19      -0.28
      6.68       0.05      -0.04
      6.92      -0.02       0.21
      6.92      -0.09       0.10
      6.40      -0.06      -0.19
      6.84       0.21       0.20
      7.04      -0.19       0.05
      6.73      -0.05      -0.34
      6.79       0.11       0.07
      6.95      -0.11       0.07
      7.06       0.20      -0.16
      6.54       0.03      -0.04
      6.99      -0.11       0.17
      6.95      -0.08       0.17
      6.58      -0.12      -0.23
      6.78       0.24       0.36
      6.98      -0.11      -0.01
      6.81       0.04      -0.28
      6.82       0.03      -0.15
      6.94       0.02       0.02
      6.94       0.14       0.02
      6.41      -0.02      -0.07
      7.01      -0.11       0.12
      6.99      -0.10       0.18
      6.68      -0.13      -0.28
      6.76       0.21       0.33
      6.96      -0.12       0.03
      6.98       0.15      -0.27
      6.73       0.04      -0.09
      6.93      -0.01       0.15
      6.92      -0.02       0.08
      6.40      -0.04      -0.16
      6.89       0.13       0.17
      7.04      -0.19       0.08
      6.69      -0.09      -0.36
      6.77       0.15       0.17
      6.96      -0.16       0.10
      7.11       0.22      -0.24
      6.61       0.04      -0.03
      6.95      -0.07       0.20
      6.93      -0.09       0.14
      6.50      -0.09      -0.21
      6.81       0.23       0.29
      7.01      -0.14       0.01
      6.77       0.00      -0.31
      6.80       0.07      -0.05
      6.95      -0.04       0.04
      6.99       0.17      -0.05
      6.46       0.00      -0.05
      7.04      -0.17       0.12
      6.97      -0.07       0.21
      6.67      -0.15      -0.25
      6.76       0.24       0.41
      6.96      -0.10      -0.01
      6.89       0.10      -0.27
      6.78       0.03      -0.13
      6.94       0.00       0.09
      6.93       0.05       0.05
      6.41      -0.03      -0.12
      6.94       0.02       0.15
      7.02      -0.15       0.12
      6.69      -0.11      -0.32
      6.77       0.18       0.24
      6.96      -0.15       0.08
      7.09       0.21      -0.28
      6.67       0.06      -0.03
      6.92      -0.03       0.23
      6.92      -0.10       0.11
      6.42      -0.06      -0.20
      6.83       0.21       0.22
      7.03      -0.18       0.04
      6.73      -0.04      -0.33
      6.79       0.10       0.04
      6.95      -0.09       0.07
      7.04       0.19      -0.14
      6.53       0.02      -0.04
      7.00      -0.12       0.16
      6.95      -0.08       0.18
      6.60      -0.13      -0.23
      6.77       0.24       0.38
      7.21       0.02      -0.03
      7.13      -0.16       0.07
      7.11       0.04      -0.06
      7.29      -0.14       0.02
      7.11      -0.07       0.02
      6.94       0.09      -0.10
      7.29       0.01       0.07
      7.21       0.09      -0.10
      5.04      -1.23       0.19
      5.41      -0.73       0.51
      5.45      -0.94       0.35
      5.42      -1.18       0.41
      5.19      -0.98       0.13
      5.53      -1.11       0.34
      5.31      -0.94       0.21
      5.19      -0.92       0.15
      5.60      -0.84       0.35
      5.45      -0.95       0.18
      5.24      -1.12       0.26
      5.54      -0.80       0.41
      5.55      -1.01       0.25
      5.51      -1.08       0.48
      5.21      -0.89       0.18
      5.58      -1.02       0.31
      5.41      -0.71       0.20
      5.28      -0.92       0.10
      5.77      -0.64       0.33
      5.57      -0.90       0.18
      5.47      -1.02       0.31
      5.61      -0.81       0.26
      5.70      -1.01       0.24
      5.58      -0.97       0.36
      5.33      -0.80       0.16
      5.58      -0.98       0.32
      5.65      -0.74       0.16
      5.68      -0.86       0.09
      6.38      -0.27       0.34
      6.64      -0.32       0.15
      6.79      -0.45       0.19
      6.70      -0.21      -0.07
      7.04      -0.33       0.14
      6.83      -0.21      -0.02
      6.75      -0.06      -0.06
      7.13      -0.07       0.12
      7.05      -0.08      -0.06
      6.78      -0.31      -0.01
      7.12       0.10       0.22
      7.14      -0.12       0.06
      7.08      -0.28       0.22
      6.78      -0.10      -0.07
      7.09      -0.26       0.11
      6.76      -0.10       0.01
      6.43      -0.33      -0.04
      6.66      -0.26       0.21
      6.22      -0.62       0.08
      5.84      -0.87       0.25
      5.86      -0.78       0.33
      5.66      -1.10       0.23
      5.44      -1.16       0.49
      5.03      -1.03       0.23
      5.35      -1.17       0.36
      7.12       0.17      -0.08
      6.89      -0.10      -0.14
      7.32       0.26       0.13
      7.21       0.03      -0.01
      7.14      -0.16       0.08
      7.09       0.03      -0.08
      7.29      -0.14       0.03
      7.11      -0.07      -0.01
      6.95       0.10      -0.10
      7.29       0.02       0.07
      7.22       0.08      -0.10
      6.87      -0.22      -0.09
      7.22       0.26       0.21
      7.25       0.05       0.05
      7.21      -0.18       0.14
      6.95       0.01      -0.14
      7.28      -0.13       0.06
      7.07       0.06      -0.08
      6.94       0.05      -0.13
      7.35       0.15       0.06
      7.20       0.01      -0.10
      6.98      -0.16      -0.01
      7.26       0.14       0.12
      7.26      -0.09      -0.03
      7.19      -0.15       0.22
      6.86       0.03      -0.08
      7.24      -0.10       0.05
      7.07       0.21      -0.07
      6.91      -0.04      -0.16
      7.37       0.25       0.08
      7.19      -0.01      -0.06
      7.09      -0.14       0.06
      7.17       0.05      -0.01
      7.28      -0.14      -0.00
      7.14      -0.09       0.09
      6.91       0.08      -0.09
      7.28      -0.02       0.06
      7.17       0.12      -0.09
      6.88      -0.17      -0.11
      7.26       0.27       0.19
      7.24       0.07       0.05
      7.20      -0.19       0.10
      6.99       0.01      -0.17
      7.30      -0.14       0.07
      7.08      -0.01      -0.08
      6.96       0.09      -0.12
      7.33       0.08       0.07
      7.21       0.04      -0.10
      6.93      -0.18      -0.04
      7.24       0.19       0.16
      7.25      -0.03       0.01
      7.20      -0.16       0.18
      6.90       0.02      -0.11
      7.26      -0.11       0.05
      7.07       0.15      -0.07
      6.92       0.00      -0.15
      7.39       0.22       0.06
      7.18      -0.03      -0.10
      7.05      -0.12       0.04
      7.25       0.07       0.06
      7.26      -0.14      -0.04
      7.17      -0.12       0.18
      6.88       0.05      -0.08
      7.26      -0.06       0.05
      7.13       0.16      -0.08
      6.89      -0.11      -0.13
      7.31       0.26       0.14
      7.22       0.04      -0.00
      7.15      -0.17       0.08
      7.07       0.03      -0.10
      7.29      -0.14       0.04
      7.10      -0.06      -0.03
      6.95       0.11      -0.10
      7.30       0.03       0.07
      7.23       0.07      -0.10
      6.88      -0.21      -0.08
      7.23       0.25       0.20
      7.25       0.04       0.04
      7.20      -0.18       0.15
      6.94       0.01      -0.14
      7.28      -0.12       0.06
      7.07       0.08      -0.07
      6.94       0.04      -0.14
      7.36       0.16       0.06
      7.19       0.00      -0.10
      7.00      -0.15       0.00
      7.26       0.12       0.11
      7.26      -0.11      -0.04
      7.19      -0.15       0.23
      6.85       0.03      -0.07
      7.24      -0.09       0.05
      7.08       0.20      -0.07
      6.90      -0.06      -0.15
      7.36       0.25       0.09
      7.20       0.00      -0.05
      7.11      -0.15       0.06
      7.15       0.05      -0.03
      7.28      -0.14       0.01
      7.13      -0.09       0.06
      6.92       0.08      -0.09
      7.28      -0.01       0.06
      7.19       0.11      -0.09
      6.87      -0.18      -0.10
      7.53       0.14      -0.00
      7.38       0.02       0.20
      7.36      -0.06      -0.11
      7.57       0.14      -0.17
      7.43       0.47      -0.21
      7.40      -0.32       0.22
      7.36      -0.19      -0.07
      7.51       0.20      -0.13
      5.52      -1.34       0.59
      4.92      -1.32       0.30
      5.58      -0.94       0.40
      5.40      -1.03       0.40
      5.57      -1.13       0.27
      5.63      -1.04       0.09
      5.50      -0.62       0.09
      5.50      -1.37       0.53
      5.32      -1.22       0.31
      5.60      -0.90       0.20
      5.58      -1.14       0.58
      5.17      -1.20       0.19
      5.69      -0.84       0.31
      5.60      -0.81       0.22
      5.56      -1.18       0.38
      5.62      -1.14       0.16
      5.63      -0.78       0.14
      5.62      -1.21       0.48
      5.30      -1.11       0.37
      5.74      -0.86       0.23
      5.63      -0.97       0.53
      5.50      -1.06       0.14
      5.82      -0.80       0.17
      5.71      -0.58       0.09
      5.63      -1.24       0.45
      5.47      -1.25       0.21
      5.66      -0.84       0.15
      5.90      -1.15       0.51
      5.68      -0.95       0.23
      6.62      -0.43       0.23
      6.67      -0.41       0.28
      6.93      -0.40       0.03
      7.07      -0.24      -0.14
      6.93       0.23      -0.15
      7.00      -0.62       0.33
      6.93      -0.43       0.04
      7.19      -0.05      -0.05
      7.21      -0.36       0.34
      6.74      -0.37      -0.00
      7.32      -0.01       0.11
      7.17      -0.05       0.06
      7.20      -0.31       0.10
      7.20      -0.29      -0.09
      6.95      -0.01      -0.07
      6.68      -0.74       0.35
      6.15      -0.77       0.25
      6.25      -0.66       0.13
      5.91      -0.95       0.54
      5.38      -1.18       0.12
      5.62      -0.95       0.27
      5.41      -0.92       0.17
      5.21      -1.49       0.47
      5.21      -1.44       0.23
      7.48       0.21      -0.14
      7.46      -0.23       0.22
      7.01      -0.16       0.05
      7.53       0.14       0.01
      7.37       0.02       0.19
      7.39      -0.05      -0.11
      7.57       0.13      -0.18
      7.42       0.49      -0.22
      7.40      -0.33       0.23
      7.35      -0.19      -0.07
      7.51       0.19      -0.13
      7.51      -0.23       0.28
      6.91      -0.21      -0.02
      7.54       0.16       0.08
      7.35       0.07       0.07
      7.48      -0.07      -0.02
      7.53       0.01      -0.21
      7.42       0.42      -0.20
      7.42      -0.29       0.22