# vtk DataFile Version 3.0
Low resolution, disturbed wind of XZ Slice at time = 101.75 seconds.
ASCII
DATASET STRUCTURED_POINTS
DIMENSIONS   164     1    17
ORIGIN     -88.00       0.00      11.00
SPACING      12.03      10.10      10.00
POINT_DATA            2788
VECTORS Velocity float
      5.37       0.28       0.29
      5.20      -0.21      -0.17
      5.03       0.02      -0.14
      5.39       0.24       0.06
      5.28       0.02       0.16
      5.24      -0.19      -0.43
      5.44      -0.13       0.07
      4.45      -0.28       0.39
      4.04      -1.02       0.12
      4.07      -0.37       0.39
      4.34      -0.27       0.34
      4.25      -0.77      -0.01
      4.03      -0.58      -0.11
      4.38      -0.35       0.19
      4.31      -0.39       0.37
      4.34      -0.78      -0.22
      4.40      -0.70       0.19
      4.42      -0.29       0.48
      4.18      -0.83       0.06
      4.13      -0.41       0.22
      4.53      -0.25       0.33
      4.37      -0.68       0.12
      4.11      -0.56      -0.23
      4.55      -0.39       0.23
      4.41      -0.23       0.33
      4.41      -0.74      -0.14
      4.38      -0.59       0.15
      4.53      -0.20       0.50
      4.35      -0.66      -0.01
      4.22      -0.41       0.05
      4.63      -0.19       0.25
      4.50      -0.49       0.23
      4.39      -0.57      -0.30
      4.69      -0.47       0.20
      4.59      -0.18       0.35
      4.44      -0.78      -0.00
      4.52      -0.24       0.26
      4.96       0.06       0.29
      4.99      -0.36      -0.14
      4.87      -0.11      -0.18
      5.25       0.18       0.03
      5.24       0.07       0.25
      5.30      -0.26      -0.40
      5.40      -0.19       0.07
      5.36       0.21       0.30
      5.10      -0.39      -0.05
      5.08       0.13       0.15
      5.42       0.26       0.20
      5.28      -0.20      -0.07
      5.02      -0.06      -0.31
      5.41       0.13       0.08
      5.29       0.19       0.21
      5.29      -0.27      -0.31
      5.29      -0.18       0.02
      5.38       0.24       0.39
      5.14      -0.25      -0.10
      5.01       0.02       0.01
      5.43       0.20       0.20
      5.21      -0.20       0.09
      4.95      -0.19      -0.36
      5.28      -0.10       0.15
      5.09       0.11       0.27
      4.92      -0.50      -0.11
      4.85      -0.19       0.18
      4.99       0.06       0.38
      5.15      -0.24      -0.16
      5.03       0.02      -0.16
      5.38       0.24       0.05
      5.28       0.04       0.17
      5.27      -0.20      -0.43
      5.44      -0.15       0.06
      5.34       0.21       0.25
      5.08      -0.45      -0.04
      5.09       0.19       0.20
      5.37       0.29       0.17
      5.26      -0.20      -0.16
      5.03      -0.03      -0.29
      5.37       0.19       0.03
      5.28       0.16       0.21
      5.30      -0.24      -0.37
      5.33      -0.17       0.02
      5.36       0.24       0.33
      5.12      -0.30      -0.10
      5.05       0.09       0.05
      5.45       0.25       0.17
      5.27      -0.18      -0.02
      5.00      -0.07      -0.39
      5.44       0.08       0.09
      5.29       0.26       0.18
      5.25      -0.28      -0.27
      5.22      -0.10       0.03
      5.37       0.27       0.34
      5.18      -0.21      -0.16
      5.03       0.03      -0.10
      5.42       0.24       0.10
      5.28      -0.04       0.12
      5.17      -0.16      -0.43
      5.44      -0.08       0.07
      5.32       0.23       0.23
      5.13      -0.40      -0.10
      5.13       0.13       0.17
      5.35       0.30       0.20
      5.25      -0.20      -0.20
      5.04      -0.00      -0.24
      5.34       0.24       0.00
      5.28       0.12       0.22
      5.31      -0.23      -0.41
      5.39      -0.17       0.04
      5.35       0.22       0.30
      5.10      -0.36      -0.07
      5.07       0.14       0.11
      5.42       0.27       0.17
      5.27      -0.19      -0.08
      5.01      -0.05      -0.34
      5.41       0.13       0.07
      5.28       0.22       0.19
      5.28      -0.25      -0.32
      5.27      -0.16       0.00
      5.38       0.26       0.38
      5.15      -0.21      -0.13
      5.03       0.04      -0.04
      5.46       0.24       0.15
      5.28      -0.12       0.06
      5.08      -0.12      -0.42
      5.44      -0.01       0.08
      5.31       0.24       0.21
      5.18      -0.35      -0.18
      5.17       0.03       0.11
      5.36       0.28       0.26
      5.22      -0.21      -0.18
      5.03       0.01      -0.18
      5.37       0.24       0.04
      5.28       0.06       0.19
      5.29      -0.21      -0.44
      5.44      -0.16       0.06
      5.34       0.21       0.26
      5.08      -0.43      -0.04
      5.09       0.18       0.18
      5.38       0.29       0.17
      5.27      -0.19      -0.15
      5.02      -0.03      -0.30
      5.38       0.18       0.04
      5.28       0.18       0.20
      5.30      -0.24      -0.36
      5.32      -0.16       0.02
      5.37       0.24       0.34
      5.13      -0.28      -0.11
      5.04       0.08       0.03
      5.46       0.25       0.17
      5.27      -0.17       0.00
      5.00      -0.08      -0.40
      5.45       0.06       0.09
      5.29       0.25       0.19
      5.24      -0.29      -0.25
      5.21      -0.07       0.05
      5.37       0.27       0.32
      5.19      -0.21      -0.16
      5.03       0.03      -0.11
      5.41       0.24       0.09
      5.28      -0.02       0.13
      5.20      -0.17      -0.43
      5.44      -0.09       0.07
      5.33       0.22       0.24
      5.11      -0.42      -0.09
      6.02       0.05      -0.04
      5.98      -0.14      -0.36
      5.95       0.10       0.15
      6.21       0.17       0.00
      5.99      -0.01      -0.13
      5.75       0.01       0.22
      6.14      -0.01       0.15
      5.04      -0.63      -0.03
      4.48      -1.03       0.04
      4.75      -0.58       0.54
      4.80      -0.58       0.27
      4.75      -0.76      -0.19
      4.64      -0.54       0.35
      5.06      -0.60       0.16
      4.88      -0.66       0.16
      4.54      -0.67       0.32
      4.93      -0.55       0.34
      4.93      -0.64       0.02
      4.76      -0.89      -0.07
      4.91      -0.59       0.43
      4.98      -0.39       0.25
      4.90      -0.63      -0.13
      4.67      -0.64       0.46
      5.10      -0.64       0.15
      5.12      -0.58       0.19
      4.53      -0.71       0.20
      4.94      -0.40       0.30
      5.00      -0.52       0.08
      4.98      -0.73      -0.17
      5.01      -0.50       0.34
      5.19      -0.32       0.19
      5.03      -0.54      -0.03
      4.80      -0.55       0.41
      5.22      -0.54       0.24
      5.22      -0.53       0.02
      4.79      -0.77       0.05
      5.14      -0.35       0.41
      5.43      -0.27       0.13
      5.59      -0.34      -0.32
      5.63       0.01       0.18
      6.13       0.01       0.00
      5.92      -0.08      -0.03
      5.71      -0.01       0.20
      6.10       0.01       0.19
      6.08      -0.05      -0.18
      5.82      -0.32      -0.19
      6.01       0.04       0.31
      6.06       0.15       0.09
      5.99      -0.07      -0.32
      5.79       0.01       0.25
      6.21      -0.02      -0.01
      6.13      -0.02       0.01
      5.62      -0.10       0.09
      6.00       0.12       0.15
      6.03      -0.00      -0.11
      5.96      -0.24      -0.28
      5.99      -0.06       0.23
      6.03       0.19       0.11
      5.84      -0.12      -0.20
      5.49      -0.22       0.36
      5.83      -0.26       0.12
      5.75      -0.27       0.05
      5.12      -0.52       0.08
      5.39      -0.21       0.35
      5.37      -0.32       0.12
      5.88      -0.19      -0.34
      5.93       0.11       0.14
      6.23       0.16      -0.01
      5.98      -0.01      -0.11
      5.76       0.02       0.21
      6.14      -0.00       0.16
      6.10      -0.05      -0.21
      5.74      -0.35      -0.17
      5.99       0.09       0.32
      6.02       0.11       0.07
      5.97      -0.08      -0.38
      5.83       0.11       0.17
      6.23       0.05      -0.04
      6.06      -0.01      -0.03
      5.67      -0.03       0.12
      6.05       0.09       0.15
      6.05      -0.00      -0.16
      5.91      -0.25      -0.26
      6.03       0.02       0.24
      6.09       0.23       0.07
      6.00      -0.02      -0.30
      5.73      -0.06       0.29
      6.16      -0.06      -0.03
      6.19       0.00       0.01
      5.58      -0.15       0.01
      5.97       0.16       0.15
      6.02       0.04      -0.07
      5.99      -0.16      -0.34
      5.98       0.06       0.17
      6.18       0.21       0.02
      5.99      -0.01      -0.18
      5.74      -0.02       0.25
      6.14      -0.02       0.10
      6.12      -0.03      -0.15
      5.69      -0.29      -0.12
      5.98       0.12       0.29
      6.01       0.08       0.04
      5.96      -0.10      -0.40
      5.87       0.18       0.12
      6.27       0.10      -0.04
      6.00      -0.02      -0.05
      5.73       0.01       0.16
      6.10       0.05       0.17
      6.07      -0.03      -0.19
      5.83      -0.30      -0.22
      6.01       0.05       0.28
      6.06       0.18       0.07
      5.99      -0.04      -0.34
      5.78       0.01       0.24
      6.19      -0.02      -0.03
      6.14      -0.00      -0.00
      5.60      -0.09       0.06
      5.99       0.15       0.12
      6.03       0.03      -0.12
      6.00      -0.19      -0.32
      6.03       0.00       0.19
      6.13       0.25       0.05
      6.00      -0.00      -0.24
      5.73      -0.05       0.28
      6.15      -0.05       0.04
      6.15      -0.02      -0.08
      5.64      -0.23      -0.06
      5.98       0.14       0.23
      6.02       0.06      -0.01
      5.98      -0.13      -0.37
      5.92       0.13       0.14
      6.24       0.14      -0.02
      5.98      -0.02      -0.10
      5.76       0.03       0.21
      6.14       0.00       0.18
      6.09      -0.05      -0.22
      5.76      -0.34      -0.18
      5.99       0.09       0.31
      6.03       0.13       0.07
      5.97      -0.07      -0.37
      5.82       0.09       0.18
      6.23       0.03      -0.04
      6.08      -0.01      -0.03
      5.66      -0.05       0.11
      6.04       0.10       0.14
      6.05       0.00      -0.15
      5.93      -0.24      -0.27
      6.03       0.01       0.23
      6.10       0.25       0.07
      6.00      -0.01      -0.29
      5.72      -0.08       0.31
      6.15      -0.07      -0.02
      6.18      -0.00      -0.01
      5.60      -0.16      -0.00
      5.97       0.16       0.17
      6.02       0.05      -0.06
      5.99      -0.16      -0.35
      5.97       0.07       0.16
      6.19       0.19       0.02
      5.99      -0.01      -0.16
      5.75      -0.01       0.24
      6.14      -0.02       0.12
      6.12      -0.04      -0.16
      5.70      -0.31      -0.13
      6.39       0.12      -0.34
      6.16      -0.17      -0.03
      6.52      -0.18       0.11
      6.58       0.18       0.06
      6.34       0.20       0.10
      6.56      -0.06      -0.11
      6.58       0.05       0.19
      5.13      -0.62       0.21
      5.14      -0.90       0.04
      5.14      -1.04       0.37
      4.95      -0.70      -0.04
      4.77      -0.87       0.18
      5.13      -0.94       0.31
      5.24      -0.59       0.32
      4.95      -0.63       0.35
      5.24      -0.73       0.09
      5.21      -0.72       0.40
      5.07      -0.62       0.02
      5.01      -0.92       0.14
      5.24      -0.96       0.34
      5.20      -0.56       0.12
      4.99      -0.66       0.21
      5.30      -0.92       0.24
      5.39      -0.50       0.29
      4.98      -0.77       0.30
      5.42      -0.60       0.10
      5.30      -0.66       0.35
      5.18      -0.54      -0.17
      4.96      -0.87       0.19
      5.34      -0.85       0.31
      5.41      -0.45       0.22
      5.18      -0.47       0.26
      5.44      -0.75       0.12
      5.49      -0.51       0.33
      5.22      -0.59       0.22
      5.52      -0.64       0.01
      5.50      -0.75       0.31
      5.51      -0.40      -0.16
      5.59      -0.47       0.05
      6.12      -0.39       0.18
      6.37       0.02       0.16
      6.23       0.14       0.18
      6.50      -0.06      -0.12
      6.53      -0.01       0.22
      6.37       0.07      -0.06
      6.44      -0.18      -0.11
      6.55      -0.26       0.16
      6.44       0.10      -0.14
      6.24      -0.04       0.00
      6.55      -0.22       0.08
      6.63       0.16       0.12
      6.26      -0.01       0.14
      6.62       0.04      -0.09
      6.52       0.01       0.18
      6.38       0.10      -0.30
      6.12      -0.30       0.04
      6.41      -0.32       0.17
      6.36       0.06       0.06
      6.02      -0.08       0.12
      6.15      -0.47       0.09
      6.07      -0.20       0.24
      5.58      -0.46       0.22
      5.81      -0.47       0.03
      5.63      -0.62       0.33
      5.39      -0.47      -0.14
      6.01      -0.25      -0.00
      6.51      -0.17       0.11
      6.58       0.18       0.07
      6.35       0.21       0.11
      6.56      -0.05      -0.12
      6.58       0.04       0.20
      6.38       0.08       0.01
      6.58      -0.11      -0.19
      6.57      -0.23       0.13
      6.39       0.10      -0.25
      6.20      -0.06      -0.05
      6.53      -0.17       0.08
      6.62       0.18       0.10
      6.30       0.11       0.12
      6.60       0.04      -0.13
      6.54       0.03       0.18
      6.40       0.12      -0.22
      6.31      -0.19      -0.06
      6.54      -0.23       0.12
      6.52       0.18      -0.07
      6.30       0.07       0.01
      6.58      -0.22       0.02
      6.66       0.20       0.08
      6.23      -0.08       0.09
      6.65       0.07      -0.11
      6.53      -0.00       0.15
      6.40       0.13      -0.36
      6.16      -0.20      -0.01
      6.52      -0.20       0.11
      6.57       0.19       0.04
      6.34       0.17       0.08
      6.57      -0.11      -0.08
      6.60       0.09       0.16
      6.33       0.03       0.04
      6.60      -0.05      -0.17
      6.57      -0.18       0.14
      6.37       0.09      -0.30
      6.17      -0.12      -0.06
      6.50      -0.15       0.11
      6.60       0.17       0.11
      6.34       0.20       0.14
      6.57       0.01      -0.14
      6.56       0.02       0.19
      6.39       0.10      -0.11
      6.43      -0.15      -0.12
      6.56      -0.23       0.13
      6.46       0.14      -0.15
      6.25       0.01      -0.02
      6.56      -0.20       0.05
      6.64       0.19       0.09
      6.26      -0.01       0.11
      6.64       0.07      -0.11
      6.53       0.04       0.16
      6.40       0.14      -0.36
      6.16      -0.24       0.01
      6.53      -0.22       0.12
      6.56       0.20       0.01
      6.33       0.13       0.05
      6.58      -0.17      -0.03
      6.63       0.14       0.12
      6.29      -0.02       0.06
      6.63       0.00      -0.14
      6.55      -0.10       0.14
      6.38       0.11      -0.33
      6.16      -0.16      -0.04
      6.51      -0.17       0.11
      6.59       0.18       0.08
      6.35       0.22       0.12
      6.55      -0.03      -0.14
      6.57       0.03       0.21
      6.39       0.09      -0.00
      6.55      -0.12      -0.18
      6.57      -0.23       0.13
      6.40       0.11      -0.23
      6.21      -0.05      -0.04
      6.53      -0.18       0.07
      6.62       0.18       0.10
      6.29       0.09       0.12
      6.61       0.04      -0.12
      6.54       0.03       0.17
      6.40       0.12      -0.25
      6.28      -0.20      -0.04
      6.54      -0.23       0.12
      6.53       0.18      -0.05
      6.31       0.09       0.01
      6.59      -0.23       0.01
      6.66       0.20       0.08
      6.24      -0.07       0.09
      6.65       0.06      -0.12
      6.54      -0.02       0.14
      6.39       0.12      -0.35
      6.16      -0.19      -0.01
      6.52      -0.19       0.11
      6.58       0.19       0.05
      6.34       0.18       0.09
      6.57      -0.09      -0.09
      6.60       0.08       0.17
      6.34       0.04       0.03
      6.60      -0.07      -0.18
      6.76       0.21       0.32
      6.96      -0.13       0.04
      7.00       0.16      -0.27
      6.72       0.04      -0.08
      6.93      -0.01       0.16
      6.92      -0.04       0.08
      6.40      -0.05      -0.17
      6.87       0.16       0.17
      5.40      -1.11       0.33
      5.06      -1.00      -0.10
      5.16      -0.76       0.41
      5.35      -1.05       0.35
      5.51      -0.68       0.04
      5.02      -0.84       0.22
      5.41      -0.95       0.44
      5.39      -0.95       0.40
      4.99      -0.95       0.03
      5.29      -0.61       0.55
      5.48      -0.98       0.26
      5.27      -0.83      -0.06
      5.31      -0.78       0.17
      5.45      -0.85       0.28
      5.50      -0.65       0.20
      4.98      -0.81       0.18
      5.60      -0.98       0.35
      5.54      -0.87       0.44
      5.25      -0.92      -0.03
      5.34      -0.54       0.62
      5.56      -0.87       0.22
      5.54      -0.65      -0.05
      5.40      -0.71       0.10
      5.58      -0.74       0.32
      5.59      -0.70       0.27
      5.09      -0.76       0.08
      5.63      -0.67       0.36
      5.73      -0.87       0.32
      5.41      -0.82      -0.13
      5.58      -0.51       0.42
      6.10      -0.66       0.24
      6.52      -0.14      -0.17
      6.29      -0.18       0.06
      6.72      -0.18       0.28
      6.79      -0.19       0.16
      6.36      -0.15      -0.17
      6.76       0.15       0.27
      6.96      -0.23       0.07
      6.69      -0.09      -0.29
      6.75       0.03       0.06
      6.91      -0.14       0.10
      7.00       0.13      -0.08
      6.48      -0.03      -0.01
      6.98      -0.19       0.18
      6.92      -0.13       0.22
      6.57      -0.19      -0.21
      6.70       0.18       0.43
      6.83      -0.20       0.02
      6.59      -0.10      -0.20
      6.45      -0.22      -0.08
      6.42      -0.33       0.16
      6.25      -0.33       0.18
      5.54      -0.56       0.08
      5.95      -0.69       0.33
      5.82      -0.83       0.37
      5.38      -0.88      -0.06
      5.38      -0.60       0.54
      6.75      -0.25       0.08
      7.03       0.17      -0.28
      6.71       0.05      -0.07
      6.93      -0.02       0.18
      6.92      -0.05       0.09
      6.40      -0.05      -0.18
      6.86       0.19       0.18
      7.05      -0.20       0.06
      6.71      -0.07      -0.35
      6.78       0.13       0.12
      6.96      -0.13       0.09
      7.09       0.21      -0.20
      6.58       0.04      -0.03
      6.97      -0.09       0.18
      6.94      -0.09       0.15
      6.54      -0.11      -0.22
      6.79       0.23       0.33
      6.99      -0.13       0.00
      6.79       0.02      -0.29
      6.81       0.05      -0.10
      6.95      -0.01       0.03
      6.96       0.16      -0.01
      6.42      -0.01      -0.06
      7.04      -0.17       0.11
      6.98      -0.09       0.20
      6.67      -0.14      -0.27
      6.76       0.23       0.37
      6.96      -0.11       0.01
      6.94       0.12      -0.27
      6.75       0.04      -0.11
      6.93      -0.00       0.12
      6.93       0.02       0.06
      6.40      -0.04      -0.14
      6.92       0.08       0.16
      7.03      -0.17       0.10
      6.69      -0.10      -0.34
      6.77       0.16       0.21
      6.96      -0.17       0.10
      7.14       0.23      -0.28
      6.65       0.05      -0.02
      6.94      -0.05       0.22
      6.93      -0.09       0.12
      6.46      -0.08      -0.21
      6.82       0.22       0.26
      7.02      -0.16       0.03
      6.75      -0.02      -0.32
      6.80       0.08      -0.00
      6.95      -0.07       0.06
      7.02       0.18      -0.10
      6.49       0.01      -0.05
      7.02      -0.15       0.14
      6.96      -0.08       0.19
      6.63      -0.14      -0.24
      6.76       0.25       0.42
      6.96      -0.08      -0.03
      6.85       0.08      -0.27
      6.80       0.02      -0.16
      6.94       0.01       0.06
      6.94       0.09       0.04
      6.41      -0.03      -0.10
      6.97      -0.03       0.14
      7.01      -0.13       0.14
      6.68      -0.12      -0.31
      6.76       0.19       0.28
      6.96      -0.14       0.06
      7.05       0.18      -0.28
      6.70       0.05      -0.06
      6.92      -0.02       0.20
      6.92      -0.07       0.10
      6.40      -0.05      -0.19
      6.85       0.21       0.19
      7.05      -0.19       0.05
      6.72      -0.06      -0.35
      6.78       0.12       0.09
      6.96      -0.12       0.08
      7.07       0.20      -0.18
      6.56       0.03      -0.03
      6.98      -0.10       0.17
      6.95      -0.08       0.16
      6.56      -0.11      -0.23
      6.79       0.24       0.34
      6.99      -0.12      -0.00
      6.80       0.03      -0.29
      6.81       0.04      -0.13
      6.95       0.00       0.02
      6.95       0.15       0.01
      6.42      -0.01      -0.06
      7.03      -0.14       0.12
      6.99      -0.09       0.19
      6.67      -0.14      -0.27
      6.76       0.22       0.35
      6.96      -0.12       0.02
      6.96       0.13      -0.27
      6.74       0.04      -0.10
      6.93      -0.01       0.13
      6.93      -0.00       0.07
      6.40      -0.04      -0.15
      6.90       0.11       0.16
      7.04      -0.18       0.09
      6.94      -0.18      -0.03
      7.24       0.18       0.15
      7.25      -0.04       0.00
      7.20      -0.16       0.19
      6.89       0.02      -0.10
      7.25      -0.11       0.05
      7.07       0.16      -0.07
      6.92      -0.01      -0.16
      5.56      -0.78       0.35
      5.35      -1.05       0.19
      5.26      -1.13       0.33
      5.44      -0.93       0.33
      5.49      -1.14       0.25
      5.41      -1.10       0.44
      5.15      -0.91       0.20
      5.54      -1.01       0.33
      5.43      -0.81       0.19
      5.19      -1.07       0.15
      5.59      -0.68       0.43
      5.53      -0.90       0.28
      5.47      -1.11       0.36
      5.36      -0.91       0.16
      5.63      -1.06       0.32
      5.44      -0.96       0.21
      5.32      -0.79       0.16
      5.68      -0.85       0.33
      5.62      -0.82       0.15
      5.29      -1.08       0.19
      5.64      -0.64       0.45
      5.68      -0.84       0.29
      5.65      -1.03       0.40
      5.38      -0.83       0.12
      5.74      -0.96       0.30
      5.56      -0.74       0.17
      5.44      -0.79       0.10
      5.88      -0.65       0.30
      5.70      -0.83       0.13
      5.50      -1.00       0.25
      6.07      -0.59       0.30
      6.38      -0.65       0.11
      6.60      -0.51       0.35
      6.49      -0.21       0.01
      7.00      -0.26       0.11
      6.90       0.04      -0.02
      6.73      -0.20      -0.10
      7.19       0.13       0.15
      7.06      -0.11       0.01
      6.99      -0.27       0.12
      7.02      -0.07       0.00
      7.19      -0.24       0.06
      7.04      -0.17       0.08
      6.84      -0.00      -0.05
      7.19      -0.09       0.11
      7.10       0.01      -0.06
      6.74      -0.31      -0.05
      6.99       0.10       0.28
      6.87      -0.18       0.16
      6.64      -0.56       0.24
      6.19      -0.49      -0.00
      6.30      -0.75       0.25
      5.87      -0.71       0.14
      5.56      -0.77       0.12
      5.79      -0.81       0.33
      5.54      -0.95       0.18
      5.21      -1.19       0.26
      5.46      -0.87       0.43
      7.25      -0.06      -0.01
      7.20      -0.16       0.20
      6.88       0.02      -0.09
      7.25      -0.11       0.05
      7.07       0.18      -0.07
      6.91      -0.02      -0.16
      7.40       0.25       0.06
      7.18      -0.02      -0.09
      7.07      -0.13       0.05
      7.21       0.06       0.03
      7.27      -0.14      -0.02
      7.15      -0.11       0.13
      6.90       0.06      -0.08
      7.27      -0.04       0.06
      7.15       0.14      -0.08
      6.88      -0.14      -0.12
      7.28       0.27       0.17
      7.23       0.05       0.02
      7.17      -0.18       0.09
      7.03       0.02      -0.13
      7.30      -0.14       0.06
      7.08      -0.04      -0.07
      6.96       0.11      -0.11
      7.31       0.05       0.07
      7.22       0.06      -0.10
      6.91      -0.20      -0.06
      7.23       0.22       0.18
      7.25       0.00       0.03
      7.20      -0.17       0.16
      6.92       0.02      -0.12
      7.27      -0.12       0.06
      7.07       0.11      -0.07
      6.93       0.02      -0.15
      7.38       0.19       0.06
      7.19      -0.01      -0.10
      7.02      -0.14       0.02
      7.27       0.09       0.09
      7.26      -0.14      -0.05
      7.18      -0.14       0.22
      6.86       0.04      -0.07
      7.25      -0.07       0.05
      7.10       0.18      -0.07
      6.90      -0.08      -0.14
      7.33       0.26       0.12
      7.21       0.02      -0.03
      7.13      -0.16       0.07
      7.11       0.04      -0.06
      7.29      -0.14       0.02
      7.11      -0.07       0.02
      6.94       0.09      -0.10
      7.29       0.01       0.07
      7.21       0.09      -0.10
      6.87      -0.21      -0.09
      7.22       0.28       0.23
      7.25       0.07       0.06
      7.21      -0.18       0.13
      6.96       0.01      -0.15
      7.29      -0.13       0.06
      7.08       0.04      -0.08
      6.94       0.06      -0.13
      7.35       0.13       0.06
      7.20       0.02      -0.10
      6.97      -0.16      -0.02
      7.25       0.15       0.13
      7.26      -0.08      -0.02
      7.20      -0.15       0.21
      6.87       0.03      -0.09
      7.25      -0.10       0.05
      7.07       0.20      -0.06
      6.91      -0.03      -0.16
      7.39       0.25       0.07
      7.19      -0.01      -0.07
      7.08      -0.14       0.05
      7.19       0.06       0.01
      7.27      -0.14      -0.01
      7.15      -0.10       0.11
      6.91       0.07      -0.09
      7.27      -0.03       0.06
      7.16       0.13      -0.09
      6.88      -0.15      -0.11
      7.27       0.27       0.18
      7.24       0.06       0.04
      7.19      -0.18       0.10
      7.01       0.01      -0.15
      7.30      -0.14       0.07
      7.08      -0.03      -0.08
      6.96       0.10      -0.11
      7.32       0.07       0.07
      7.22       0.05      -0.10
      6.92      -0.19      -0.05
      7.24       0.21       0.17
      7.25      -0.01       0.02
      7.20      -0.17       0.17
      6.91       0.02      -0.12
      7.26      -0.11       0.06
      7.07       0.13      -0.07
      6.93       0.01      -0.15
      7.38       0.21       0.06
      7.48      -0.13       0.28
      7.02      -0.17      -0.09
      7.55       0.18       0.03
      7.43       0.17      -0.04
      7.42      -0.15       0.06
      7.48      -0.10      -0.15
      7.45       0.28      -0.16
      7.42      -0.24       0.20
      5.13      -1.23       0.39
      5.55      -0.97       0.23
      5.48      -1.08       0.58
      5.25      -1.19       0.15
      5.63      -0.89       0.23
      5.56      -0.73       0.14
      5.48      -1.31       0.46
      5.52      -1.23       0.20
      5.61      -0.84       0.16
      5.62      -1.26       0.53
      5.12      -1.22       0.33
      5.67      -0.89       0.33
      5.50      -1.01       0.47
      5.58      -1.07       0.20
      5.74      -0.90       0.08
      5.59      -0.47       0.05
      5.60      -1.34       0.54
      5.54      -1.18       0.23
      5.74      -0.79       0.16
      5.73      -1.17       0.56
      5.18      -1.17       0.23
      5.80      -0.79       0.34
      5.65      -0.84       0.31
      5.74      -1.04       0.28
      5.80      -0.97       0.09
      5.74      -0.55       0.08
      5.74      -1.20       0.48
      5.52      -1.07       0.30
      5.86      -0.78       0.16
      5.69      -1.04       0.55
      5.57      -1.03       0.10
      6.35      -0.51       0.18
      6.61      -0.28       0.02
      6.77      -0.59       0.24
      7.00      -0.45      -0.02
      7.10      -0.04      -0.06
      7.10      -0.46       0.28
      6.72      -0.38       0.13
      7.25      -0.08       0.05
      7.14      -0.18       0.28
      7.11      -0.25      -0.06
      7.37      -0.02      -0.09
      7.27       0.30      -0.15
      7.23      -0.45       0.26
      7.19      -0.33      -0.02
      7.32       0.05      -0.08
      7.28      -0.40       0.33
      6.53      -0.48       0.08
      6.97      -0.24       0.22
      6.52      -0.48       0.26
      6.45      -0.70       0.14
      6.25      -0.76      -0.00
      5.88      -0.45       0.04
      5.69      -1.34       0.51
      5.37      -1.28       0.29
      5.53      -1.00       0.20
      5.42      -1.31       0.60
      4.95      -1.37       0.22
      7.56       0.19       0.02
      7.44       0.19      -0.06
      7.40      -0.16       0.07
      7.47      -0.11      -0.14
      7.45       0.25      -0.15
      7.42      -0.23       0.19
      7.11      -0.12       0.09
      7.53       0.13      -0.07
      7.43       0.01       0.26
      7.23      -0.10      -0.15
      7.57       0.18      -0.09
      7.47       0.36      -0.17
      7.38      -0.26       0.17
      7.40      -0.17      -0.09